/*--------------------------------*- C++ -*----------------------------------*\
| =========                 |                                                 |
| \\      /  F ield         | OpenFOAM: The Open Source CFD Toolbox           |
|  \\    /   O peration     | Version:  v2012                                 |
|   \\  /    A nd           | Website:  www.openfoam.com                      |
|    \\/     M anipulation  |                                                 |
\*---------------------------------------------------------------------------*/
FoamFile
{
    version     2.0;
    format      ascii;
    class       surfaceScalarField;
    location    "86.6716637397513807";
    object      meshPhi;
}
// * * * * * * * * * * * * * * * * * * * * * * * * * * * * * * * * * * * * * //

dimensions      [0 3 -1 0 0 0 0];
oriented        oriented;


internalField   nonuniform List<scalar> 
18180
(
2.2085505e-17
-0.024932791
0
-0.023188734
9.536282e-14
-0.048934546
0
-0.021160461
0
-0.045020588
-9.2167765e-14
-0.071011625
0
-0.018988151
0
-0.040749497
0
-0.065113433
0
-0.091096777
0
-0.016829789
-4.7581289e-14
-0.03644891
9.2092777e-14
-0.058880083
0
-0.0838218
0
-0.10987198
-4.9155925e-14
-0.015126347
-4.7542086e-14
-0.03286336
-4.6013899e-14
-0.053245254
-8.9018511e-14
-0.076363159
0
-0.10147047
1.5383882e-17
-0.12720245
9.5245746e-18
-0.014206764
4.7502204e-14
-0.030412715
-4.5969536e-14
-0.048863423
4.4479609e-14
-0.069751192
0
-0.093055616
0
-0.11789249
-8.0505199e-14
-0.14334488
0
-0.013821004
4.7472814e-14
-0.028973026
4.5933395e-14
-0.045803893
-8.890364e-14
-0.0645902
0
-0.085495135
-8.3203002e-14
-0.10860012
0
-0.13314338
0
-0.15816007
0
-0.013608073
-9.4850012e-14
-0.028139687
9.8812757e-18
-0.043745916
0
-0.060756948
4.2981985e-14
-0.079310467
0
-0.10003849
0
-0.12300819
0
-0.14719273
0
-0.17192142
1.0907851e-17
-0.01327112
0
-0.027361607
-4.5882822e-14
-0.042077098
9.1347178e-18
-0.057687641
0
-0.074327015
0
-0.092601831
-1.2059242e-13
-0.1133763
0
-0.13630884
0
-0.16019226
1.1198541e-17
-0.18453364
0
-0.012707368
0
-0.026204361
0
-0.040184097
0
-0.054721516
4.2910904e-14
-0.069895162
8.3040651e-14
-0.086171117
4.0171905e-14
-0.10470095
3.8860759e-14
-0.12584535
0
-0.14864318
0
-0.17214038
1.0342456e-17
-0.19620518
0
-0.012011321
4.7335439e-14
-0.024706555
9.4149071e-18
-0.03793666
0
-0.051601908
0
-0.065689395
4.1493784e-14
-0.080581225
0
-0.097218094
6.6750146e-18
-0.11629589
7.5122127e-14
-0.13751838
0
-0.16002422
0
-0.18315495
9.4582185e-18
-0.20685048
-2.4448434e-14
-0.011294787
0
-0.02312196
0
-0.035546603
0
-0.04843316
0
-0.06168663
0
-0.075601005
4.0113664e-14
-0.090830094
-3.8805351e-14
-0.10801614
3.7537757e-14
-0.12732364
-3.6303055e-14
-0.14836284
7.0234062e-14
-0.17048514
0
-0.19324015
0
-0.21669741
5.6230982e-18
-0.010609214
0
-0.021584053
0
-0.033195565
0
-0.045345527
0
-0.057876138
0
-0.071017826
0
-0.085269171
-3.8770013e-14
-0.10101918
0
-0.11841137
3.6282697e-14
-0.1376013
-3.5088232e-14
-0.15832927
-6.7871138e-14
-0.18009839
0
-0.20252468
-6.3454334e-14
-0.2256872
5.6506856e-18
-0.009966161
5.019851e-18
-0.020142364
-4.6355642e-18
-0.030970765
0
-0.042415847
0
-0.054274738
0
-0.066761269
0
-0.080269261
0
-0.094979728
7.4956367e-14
-0.11081772
0
-0.12811618
5.5676098e-18
-0.14712273
3.3912172e-14
-0.16753732
0
-0.18894094
0
-0.21104097
0
-0.23398606
0
-0.0093663272
-4.7233667e-14
-0.018802303
4.62382e-18
-0.028895863
2.2109052e-14
-0.039673391
0
-0.050886982
0
-0.062762247
0
-0.075611144
0
-0.089501294
0
-0.10421641
5.9533587e-18
-0.11988135
0
-0.1370898
-3.3885986e-14
-0.15593752
-3.2773754e-14
-0.17602278
-6.3390495e-14
-0.1970827
0
-0.21886455
6.7049783e-18
-0.24153755
5.7094433e-18
-0.0088038832
0
-0.017556499
2.2851141e-14
-0.026966703
0
-0.037120555
0
-0.047706291
0
-0.058970045
0
-0.071186079
3.8696786e-14
-0.084315701
0
-0.098118035
0
-0.1125645
0
-0.12822934
3.3858216e-14
-0.14549663
3.2752349e-14
-0.16411567
0
-0.18385411
-6.1257747e-14
-0.20454399
0
-0.22602014
5.7265218e-14
-0.24851048
-2.4396814e-14
-0.0082735229
4.8866032e-18
-0.016393691
2.2833672e-14
-0.025170024
0
-0.034745089
4.0457126e-18
-0.04472559
0
-0.055375297
-3.9980374e-14
-0.06697087
0
-0.079366942
0
-0.092347821
0
-0.10591764
-3.4983497e-14
-0.12041682
0
-0.13622089
-4.938019e-18
-0.15337325
4.4546094e-18
-0.17168481
0
-0.191041
-5.9193653e-14
-0.21139707
0
-0.23258188
5.5331514e-14
-0.25486547
-2.4389791e-14
-0.0077715654
-2.3595195e-14
-0.015305473
2.2830971e-14
-0.023493643
0
-0.03253231
4.0880173e-18
-0.041935404
3.8481037e-18
-0.051972028
1.9980313e-14
-0.062961229
0
-0.074679618
0
-0.086915532
0
-0.099745223
0
-0.11338399
0
-0.12802631
0
-0.14379717
0
-0.16071175
-3.0579283e-14
-0.17866269
0
-0.19766457
-5.7196358e-14
-0.21767256
0
-0.23858916
0
-0.26072335
2.4383629e-14
-0.0072960686
0
-0.014285813
0
-0.021927942
2.2080475e-14
-0.030467884
0
-0.039323292
0
-0.048756102
1.9975223e-14
-0.059153136
-3.6194234e-18
-0.070241302
3.7349584e-14
-0.081787962
0
-0.093925119
3.4930782e-14
-0.1068794
0
-0.12068923
0
-0.13528475
3.1593734e-14
-0.15085744
-4.256029e-18
-0.16748158
2.9551111e-14
-0.18509162
0
-0.20373978
5.5269701e-14
-0.22343118
0
-0.24408099
5.164992e-14
-0.26604894
0
-0.0068444439
0
-0.013330263
0
-0.020464745
0
-0.028539882
0
-0.036878119
0
-0.045721078
3.8565635e-18
-0.055542078
1.9307151e-14
-0.066036842
-1.8668184e-14
-0.076939243
0
-0.08843128
3.4906744e-14
-0.10075701
0
-0.11390647
0
-0.1276233
0
-0.14202343
-3.0522397e-14
-0.15738679
0
-0.17371852
0
-0.19099083
-2.7608912e-14
-0.20931044
-5.339385e-14
-0.22867092
0
-0.24909358
0
-0.27096055
0
-0.0064145755
0
-0.012434536
0
-0.019097429
0
-0.026737911
2.1340911e-14
-0.034589334
3.8698549e-18
-0.042862508
-1.9956308e-14
-0.052124283
0
-0.062055219
0
-0.072344559
-1.8040308e-14
-0.083223914
0
-0.094932585
-3.3723282e-14
-0.1074615
0
-0.12051631
0
-0.13398529
0
-0.1482134
4.0129535e-18
-0.16338887
-2.852432e-14
-0.17943075
2.7586003e-14
-0.19638626
2.6676941e-14
-0.21437756
-5.1584808e-14
-0.23345985
0
-0.25366627
0
-0.27543587
-2.9055038e-18
-0.0060048878
0
-0.011595164
0
-0.01782038
2.2064616e-14
-0.025052413
2.1335822e-14
-0.03244879
2.0632672e-14
-0.040175877
0
-0.04889598
3.7522473e-18
-0.058289244
3.3627843e-18
-0.067986582
0
-0.078267064
-3.0544379e-18
-0.089370753
0
-0.10125758
3.2588561e-14
-0.1136893
0
-0.1264616
0
-0.13978686
0
-0.15393808
3.6902958e-18
-0.16889307
0
-0.18464757
2.8917783e-18
-0.20129997
2.5772453e-14
-0.21900722
0
-0.23781209
0
-0.25784511
0
-0.27955906
-1.2179997e-14
-0.0056146072
1.178321e-14
-0.010809496
0
-0.016628539
0
-0.023474932
0
-0.030446577
0
-0.037655024
1.9944447e-14
-0.045853122
-1.9281935e-14
-0.054731914
1.8640494e-14
-0.063857328
1.8022946e-14
-0.073550411
-1.7419581e-14
-0.08406631
1.6839724e-14
-0.095306719
0
-0.10709582
3.1479544e-14
-0.11928747
-3.043762e-14
-0.13189736
0
-0.14516999
2.8462338e-14
-0.1591967
-2.7525613e-14
-0.17391651
2.6620263e-14
-0.18938926
2.5746856e-14
-0.20577353
0
-0.22321858
-4.8141875e-14
-0.24178702
0
-0.26164801
0
-0.28331032
0
-0.0052443369
1.1783951e-14
-0.010075015
-2.2786665e-18
-0.015517745
0
-0.021997485
0
-0.02857272
0
-0.035291781
0
-0.042988564
0
-0.051376255
0
-0.0599509
0
-0.069068638
-1.7411131e-14
-0.079017575
1.6833099e-14
-0.089644358
0
-0.10078183
0
-0.11236167
0
-0.12434975
2.940872e-14
-0.13691173
0
-0.15015916
0
-0.16401618
2.6594176e-14
-0.17847597
0
-0.19369206
0
-0.20983961
-2.4049151e-14
-0.22705254
-4.6504336e-14
-0.24538111
0
-0.26511441
-4.3442417e-14
-0.28676706
-2.8919621e-18
-0.0048942228
0
-0.0093893757
-1.1397639e-14
-0.014483911
1.1022076e-14
-0.020613804
0
-0.026818148
0
-0.0330773
0
-0.040294023
1.9275232e-14
-0.048213815
0
-0.056260287
1.8008961e-14
-0.064817115
0
-0.074220473
2.9828667e-18
-0.084270423
2.715271e-18
-0.094771752
-1.5719277e-14
-0.10571752
0
-0.11712133
0
-0.12906012
5.6814397e-14
-0.14161737
0
-0.15476154
0
-0.16839725
-2.5687344e-14
-0.18260289
2.4842259e-14
-0.197589
2.4026308e-14
-0.21352574
2.3232719e-14
-0.23051987
4.492386e-14
-0.24865434
0
-0.26826161
0
-0.28991964
1.2178784e-14
-0.0045637356
-2.276197e-18
-0.0087502993
2.2795099e-14
-0.013521577
-1.102321e-14
-0.019317019
1.066053e-14
-0.025174034
0
-0.031004443
0
-0.037761024
1.9270925e-14
-0.045234819
-1.8623279e-14
-0.052777841
0
-0.060790712
-1.7396752e-14
-0.069669433
0
-0.079177738
0
-0.089081833
1.5709193e-14
-0.099417572
1.5182254e-14
-0.11023701
0
-0.12157019
-2.8382191e-14
-0.13348247
2.7442093e-14
-0.14598785
0
-0.15896136
0
-0.17235901
-2.4815814e-14
-0.18632945
-2.3999094e-14
-0.20111297
0
-0.21686315
2.2439392e-14
-0.23367338
0
-0.25161379
0
-0.27113549
0
-0.29282387
-1.217488e-14
-0.0042521396
1.1780348e-14
-0.0081544246
1.1395331e-14
-0.012625692
0
-0.018101044
-1.0659234e-14
-0.023631335
1.0306777e-14
-0.029064035
0
-0.035382468
0
-0.042429802
0
-0.049494854
0
-0.056984096
0
-0.065359102
3.0491909e-18
-0.074356246
0
-0.083698712
0
-0.093454884
-1.517185e-14
-0.10369835
-1.4667065e-14
-0.11445382
0
-0.12575275
0
-0.13759809
0
-0.14997061
0
-0.16276004
-4.9570015e-14
-0.17593014
2.3970422e-14
-0.18969165
2.317938e-14
-0.20429351
1.7628325e-18
-0.21988497
4.3349651e-14
-0.23653308
0
-0.25430903
0
-0.27374251
0
-0.29547066
0
-0.0039587261
0
-0.0075997695
2.306418e-18
-0.011791988
1.1021022e-14
-0.016960174
0
-0.022182304
-1.0305531e-14
-0.027248024
-1.9741588e-18
-0.033150443
0
-0.039789333
0
-0.046402586
0
-0.053390563
-1.738538e-14
-0.061282519
0
-0.069796114
1.623787e-14
-0.078607211
0
-0.087813641
-1.5162357e-14
-0.097510383
1.4656376e-14
-0.1077134
1.4164475e-14
-0.11842844
0
-0.12961439
0
-0.14134063
2.9537544e-18
-0.15359252
0
-0.16618663
-2.3940999e-14
-0.17914754
0
-0.19271734
4.4777854e-14
-0.20716113
2.1652138e-14
-0.22262428
2.0935308e-14
-0.23912834
0
-0.25673789
0
-0.27611868
0
-0.29791211
0
-0.0036799794
0
-0.0070851364
0
-0.011016282
-1.1020137e-14
-0.015890464
-2.296728e-18
-0.020820465
0
-0.025547054
1.9664711e-18
-0.031056771
-2.0167547e-18
-0.037304427
1.8611593e-14
-0.043491405
0
-0.050001481
0
-0.057432753
1.6794803e-14
-0.065487498
0
-0.073793099
-1.5681743e-14
-0.08247637
-1.5153749e-14
-0.091656929
0
-0.10132044
-1.4153434e-14
-0.11147339
-1.3682155e-14
-0.12206124
0
-0.13309991
0
-0.14472972
2.6596209e-18
-0.15685963
0
-0.16927835
2.0715234e-18
-0.18204098
2.236271e-14
-0.19543521
-2.1626278e-14
-0.20974876
1.4374678e-18
-0.22509848
-1.2883277e-18
-0.24147167
-3.9089433e-14
-0.25894497
0
-0.27827588
0
-0.30014785
-1.6711913e-05
-0.0040069032
0
-0.0066035704
0
-0.010295196
0
-0.01488653
2.3201434e-18
-0.01953918
1.0303504e-14
-0.023952662
0
-0.029091827
9.6272466e-15
-0.0349659
-1.6642728e-18
-0.040752096
0
-0.046808742
0
-0.05380147
0
-0.061421466
0
-0.069244317
0
-0.077426736
0
-0.086113878
0
-0.095256379
0
-0.10484832
0
-0.11486591
0
-0.12527491
0
-0.13623385
0
-0.14782246
2.388214e-14
-0.15982727
0
-0.17205743
-2.2331893e-14
-0.18463395
0
-0.19787744
-2.0887181e-14
-0.21207746
1.2985547e-18
-0.22733524
0
-0.24359751
0
-0.26094146
0
-0.28025517
3.5247017e-14
-0.30222171
-2.7875871e-05
-0.0039654505
-4.520194e-05
-0.007159905
0
-0.0096220365
0
-0.013943374
0
-0.01833262
1.0304524e-14
-0.022455384
-1.9441395e-18
-0.027248511
0
-0.03276536
-9.3030478e-15
-0.03817626
-8.9913982e-15
-0.043803933
0
-0.050380134
0
-0.057588638
0
-0.064949711
1.5669116e-14
-0.072650648
-2.3940259e-18
-0.08086742
-1.4627451e-14
-0.089513886
-2.8270151e-14
-0.098552286
2.7318909e-14
-0.10800558
-1.3200469e-14
-0.11786457
-1.4577358e-18
-0.12820881
0
-0.13914727
0
-0.15064841
2.3064922e-14
-0.16250053
0
-0.17455093
-4.3138612e-14
-0.18695744
-2.0858721e-14
-0.2000679
-2.0172724e-14
-0.21417264
-1.9504763e-14
-0.22935342
3.7715452e-14
-0.24552589
3.6456708e-14
-0.26276334
0
-0.28207415
-3.4032678e-14
-0.30413408
-3.42068e-05
-0.0039227805
-7.5621649e-05
-0.0071360477
-6.9105138e-05
-0.010382921
-1.1021521e-14
-0.013053938
0
-0.017195828
0
-0.021050054
9.9606451e-15
-0.025518913
-2.042924e-18
-0.030696478
0
-0.035755495
1.4368549e-18
-0.040979584
-1.6267885e-18
-0.047159413
0
-0.053978962
0
-0.0608991
2.5213382e-18
-0.068137172
0
-0.075903957
-1.4622456e-14
-0.084081165
0
-0.092594668
1.3649025e-14
-0.10150312
-1.3189726e-14
-0.11083245
-1.2747476e-14
-0.12062817
0
-0.13095177
0
-0.14183174
0
-0.15321706
0
-0.16490866
0
-0.17678268
0
-0.18903727
0
-0.2020301
3.8962926e-14
-0.21605154
-1.8836461e-14
-0.23118069
-9.5773655e-19
-0.24727482
0
-0.26442804
0
-0.28376354
-3.2860427e-14
-0.30591794
-3.6410167e-05
-0.0038815615
-9.3090494e-05
-0.0071090075
-0.00011605325
-0.010409963
-9.3399632e-05
-0.013998485
0
-0.016117796
0
-0.01973216
0
-0.023897635
9.626458e-15
-0.028752763
-1.6436976e-18
-0.033481104
0
-0.038327381
-8.6834883e-15
-0.044131629
-8.3908595e-15
-0.050582345
0
-0.05708278
0
-0.063875796
0
-0.071212049
0
-0.078945231
-1.9941118e-18
-0.086963353
0
-0.095352202
1.3181492e-14
-0.10415888
-1.2736439e-14
-0.11343656
1.2310936e-14
-0.12322691
0
-0.13350035
0
-0.14427927
0
-0.15553248
0
-0.16706701
0
-0.17878263
0
-0.19089651
-1.9455166e-14
-0.20378011
0
-0.21774136
1.8192293e-14
-0.23282553
-1.7585866e-14
-0.2488629
0
-0.26596698
0
-0.28533134
0
-0.30757376
-3.5176767e-05
-0.0038422642
-9.9399092e-05
-0.0070829589
-0.00014341522
-0.010431448
-0.00015723589
-0.014089233
-0.00011604842
-0.017173485
0
-0.01848627
0
-0.02237886
0
-0.02692728
1.6362362e-18
-0.031344897
-1.3821314e-18
-0.035839829
0
-0.041288692
0
-0.047388573
-1.6208755e-14
-0.05349019
0
-0.059856985
0
-0.066781062
1.4610307e-14
-0.074093551
1.411348e-14
-0.081641923
1.363256e-14
-0.089538646
0
-0.097845494
-1.2727785e-14
-0.10661279
1.229823e-14
-0.1158933
-1.1886279e-14
-0.1256353
-1.1490974e-14
-0.13582303
0
-0.14649737
0
-0.15762165
0
-0.16900633
0
-0.18056738
1.9428135e-14
-0.19254919
0
-0.20534439
-1.8169036e-14
-0.21925213
-1.7565863e-14
-0.23431046
1.6980451e-14
-0.25031371
-3.2821817e-14
-0.26739261
-3.1714005e-14
-0.28680276
-3.0631728e-14
-0.30911752
-3.1171561e-05
-0.0038051955
-9.6340633e-05
-0.0070580967
-0.00015372797
-0.010450775
-0.00019472848
-0.014168336
-0.00019555159
-0.017341526
-0.00013280414
-0.019551292
0
-0.020949307
0
-0.025212975
-9.3010664e-15
-0.029339653
8.9870288e-15
-0.033507166
-1.649931e-18
-0.038622082
0
-0.044387668
-8.1014537e-15
-0.05011001
0
-0.056069564
-1.5120716e-14
-0.062599913
0
-0.06951473
-1.410549e-14
-0.076616518
0
-0.084044366
0
-0.091877146
-1.2717043e-14
-0.10014274
1.2287801e-14
-0.10891096
-1.1873424e-14
-0.11815768
-1.1477229e-14
-0.12782446
1.1094769e-14
-0.1379277
0
-0.14850301
0
-0.15950009
-2.006034e-14
-0.17074035
0
-0.18215491
0
-0.19402022
9.1526863e-19
-0.20673496
0
-0.22060437
7.5978532e-19
-0.23564734
1.6396054e-14
-0.25164606
-3.1690535e-14
-0.2687228
0
-0.28817592
-2.9572856e-14
-0.31054983
-2.5045717e-05
-0.0037708562
-8.564034e-05
-0.0070344605
-0.00014956398
-0.010467652
-0.00020918149
-0.014239245
-0.00024242297
-0.017487959
-0.00022383481
-0.019786538
-0.00014582205
-0.021988158
0
-0.023595077
0
-0.027458899
0
-0.031323245
1.6565593e-18
-0.036120288
8.3853016e-15
-0.041568889
0
-0.046931431
0
-0.052503097
7.5572351e-15
-0.058657272
0
-0.065195919
-1.9938348e-18
-0.071872934
1.3621063e-14
-0.078853541
0
-0.086233996
-1.2710129e-14
-0.094015972
0
-0.10226896
1.1865256e-14
-0.11101031
1.1417716e-18
-0.12018931
0
-0.1298039
0
-0.13984544
0
-0.15031419
0
-0.16119014
1.9373292e-14
-0.17228774
0
-0.18356524
0
-0.19532403
1.7521092e-14
-0.20797131
1.6941585e-14
-0.22180826
6.8435242e-19
-0.23685957
0
-0.25286653
-3.0597013e-14
-0.26996048
0
-0.28946818
-2.8549449e-14
-0.31187123
-1.7416256e-05
-0.0037398711
-6.9024245e-05
-0.0070125515
-0.00013343879
-0.010481804
-0.0002039088
-0.01430149
-0.00026063106
-0.017618809
-0.00027754311
-0.019991011
-0.00024574673
-0.022294287
-0.00015868142
-0.024586154
0
-0.025682232
0
-0.029283076
0
-0.033775292
1.7862958e-18
-0.038920872
-1.4041708e-18
-0.043944464
0
-0.049147326
7.5568596e-15
-0.054941726
7.2972345e-15
-0.061124401
0
-0.067397808
0
-0.073951835
1.6206084e-18
-0.080902004
0
-0.088223374
1.3408673e-18
-0.095971289
1.2386175e-18
-0.10419888
-1.1455591e-14
-0.1128979
1.1071058e-14
-0.1220574
0
-0.13163508
0
-0.14158673
0
-0.15194953
0
-0.16270088
-1.8707e-14
-0.17366493
0
-0.18481613
0
-0.1964789
0
-0.20906225
-1.6359578e-14
-0.22288625
1.581516e-14
-0.23795172
0
-0.25398661
0
-0.27112157
0
-0.2906626
-2.7560334e-14
-0.31308461
-8.8782106e-06
-0.0037127092
-4.8135455e-05
-0.0069928295
-0.00010791472
-0.01049304
-0.00018227327
-0.014354607
-0.00025425509
-0.017733377
-0.0002984663
-0.020174558
-0.00030468229
-0.022567274
-0.00026732536
-0.024972422
-0.00016909865
-0.026566143
0
-0.027366782
0
-0.031579188
0
-0.036432429
0
-0.041138523
7.8216771e-15
-0.045993541
0
-0.051443393
7.2967232e-15
-0.057287974
7.0456709e-15
-0.063177686
0
-0.069325318
0
-0.075867472
0
-0.082752536
1.3183334e-18
-0.090020771
0
-0.097747218
1.1445479e-14
-0.10595542
-3.3178491e-14
-0.11464861
0
-0.12379376
0
-0.13331016
0
-0.14316532
0
-0.15341733
0
-0.16405464
1.0181471e-18
-0.17488982
0
-0.18592159
1.6895203e-14
-0.19749229
1.6338027e-14
-0.21002999
0
-0.22384845
1.5270468e-14
-0.23894132
0
-0.25501572
2.8519542e-14
-0.27219822
0
-0.29177578
0
-0.31418428
-0.0036894594
0
-2.4604594e-05
-0.0069756623
-7.5495895e-05
-0.010501383
-0.00014764866
-0.014398178
-0.00022744029
-0.017831657
-0.00029125952
-0.020337344
-0.00032766705
-0.02281354
-0.00033135596
-0.025314058
-0.00028466038
-0.02701894
-0.00017540176
-0.028119971
0
-0.029519065
0
-0.034092284
0
-0.038502494
7.823026e-15
-0.043030344
0
-0.048152444
-7.2939797e-15
-0.053674938
7.0438558e-15
-0.059200482
6.8022379e-15
-0.06496067
0
-0.07111591
0
-0.077588989
-1.2254688e-14
-0.084405355
0
-0.091653708
-1.1156094e-18
-0.099370927
1.0507204e-18
-0.10758377
-1.0677601e-14
-0.11628981
1.031997e-14
-0.12540019
0
-0.13483258
-9.6450782e-15
-0.14458764
0
-0.15473786
0
-0.16526177
1.7444809e-14
-0.1759764
0
-0.18689125
0
-0.19838434
0
-0.21088526
-1.5252033e-14
-0.22471081
-1.4742438e-14
-0.23983646
0
-0.25596427
2.7532146e-14
-0.2732004
0
-0.29278089
0
-0.31517689
-0.0069610886
0
-0.0036703706
8.7866112e-06
-3.8696841e-05
-0.010506834
-0.0001034473
-0.014431798
-0.00018434572
-0.017912446
-0.00026063416
-0.020479267
-0.00031980339
-0.023032371
-0.00035625369
-0.025619427
-0.00035256901
-0.027411875
-0.00029514075
-0.028661239
-0.00018137021
-0.030154768
0
-0.031883859
-8.0977184e-15
-0.036026436
0
-0.040248939
-7.5518185e-15
-0.045058591
-7.2939174e-15
-0.050273633
0
-0.055454325
-6.8003298e-15
-0.060846366
-1.3135123e-14
-0.066634811
-1.2684336e-14
-0.07271891
0
-0.079109115
0
-0.085906587
0
-0.093153401
-1.0413023e-18
-0.1008831
1.0666992e-14
-0.10912299
0
-0.11781621
-9.9627563e-15
-0.12686773
7.438707e-19
-0.13621187
0
-0.14586839
0
-0.15591919
0
-0.16634029
-1.6844333e-14
-0.1769315
0
-0.18774076
0
-0.199165
1.5232367e-14
-0.21164467
0
-0.22549101
0
-0.24065695
0
-0.25683212
0
-0.27410659
0
-0.29369368
0
-0.31605427
-0.010509314
0
-0.0069493937
2.4462429e-05
-0.0036560499
1.7064983e-05
-5.3085868e-05
-0.014455106
-0.00012921986
-0.017974461
-0.00021134894
-0.020599785
-0.00028621778
-0.023222916
-0.00034760345
-0.025887326
-0.00037878467
-0.027759671
-0.00036540686
-0.029134575
-0.00030532272
-0.030815106
-0.00018883552
-0.032382986
0
-0.033689333
0
-0.037640818
0
-0.042150972
1.2850198e-18
-0.04707365
-9.7624235e-19
-0.051928168
6.7986568e-15
-0.056971921
1.3130308e-14
-0.062412429
-6.3397912e-15
-0.068129527
0
-0.074117389
0
-0.080489628
1.1420206e-14
-0.087292808
-1.1031284e-14
-0.094550474
1.0656239e-14
-0.10231132
0
-0.11056054
9.951851e-15
-0.11921994
7.6122315e-19
-0.12819825
9.3004443e-15
-0.13745113
0
-0.14701583
0
-0.15697656
0
-0.16728954
0
-0.17776912
0
-0.18848015
0
-0.19984974
1.4707254e-14
-0.21232472
0
-0.22620641
4.201742e-19
-0.24140549
-1.3277931e-14
-0.25762043
-2.565497e-14
-0.27492992
0
-0.29449711
0
-0.3168302
-0.014468283
0
-0.010509583
3.864611e-05
-0.0069405409
4.7586529e-05
-0.0036470819
2.4309052e-05
-6.6337679e-05
-0.018018017
-0.00014822562
-0.020698378
-0.00023217769
-0.023385222
-0.00031102983
-0.026116367
-0.00036933148
-0.028061962
-0.00039239318
-0.029552467
-0.00037813283
-0.031399341
-0.00031803401
-0.033164425
-0.00019444244
-0.034011624
0
-0.035185565
0
-0.039419162
0
-0.044061199
9.687553e-19
-0.048610783
-8.2065659e-19
-0.053326205
6.5638012e-15
-0.058437544
6.3376986e-15
-0.063807632
-6.1195268e-15
-0.069416081
0
-0.075386819
0
-0.081771564
0
-0.088580016
0
-0.095865461
0
-0.10364677
0
-0.11188169
9.6068181e-15
-0.12049743
6.9446267e-19
-0.12940059
8.9790367e-15
-0.13856237
-8.6823438e-15
-0.1480415
0
-0.15791152
0
-0.16812691
0
-0.17849728
0
-0.18912207
1.468667e-14
-0.20044772
0
-0.21294259
-3.9867613e-19
-0.22686848
1.3266149e-14
-0.24209361
-1.2817914e-14
-0.25833264
7.2574574e-19
-0.27566219
0
-0.29521533
0
-0.31750017
-0.01804369
0
-0.014474008
5.3111307e-05
-0.010507335
7.5295172e-05
-0.0069344801
6.786645e-05
-0.0036435794
2.9985459e-05
-7.6141368e-05
-0.020774365
-0.00016290211
-0.023517941
-0.00025223686
-0.026305579
-0.00033024469
-0.028317933
-0.00038244394
-0.029913998
-0.00040615563
-0.031910855
-0.00039395419
-0.033851024
-0.00032742038
-0.0348928
-0.00019687462
-0.035317883
0
-0.03684821
7.289607e-15
-0.041223858
-7.0395845e-15
-0.045490916
8.0821059e-19
-0.049898078
0
-0.054697935
0
-0.059740664
-6.1167198e-15
-0.064991449
0
-0.070583685
-1.1406195e-14
-0.076574223
0
-0.082958545
1.0640145e-14
-0.089785315
0
-0.097094929
-9.9306255e-15
-0.1048827
8.0063708e-19
-0.11310674
9.2745382e-15
-0.12166707
-8.9658347e-15
-0.13047954
0
-0.13955605
0
-0.1489531
0
-0.15873658
1.5680853e-14
-0.16885528
5.3056178e-19
-0.17912972
0
-0.18967263
-1.4180627e-14
-0.20097509
1.370945e-14
-0.21350899
0
-0.2274849
1.2805738e-14
-0.24271979
0
-0.25897597
-2.3903042e-14
-0.27631827
0
-0.29583083
0
-0.31807813
-0.020825927
0
-0.018055684
6.6409964e-05
-0.014472487
0.00010354569
-0.010501549
0.0001074824
-0.0069312761
8.3763136e-05
-0.0036461514
3.3576148e-05
-8.3720031e-05
-0.023618125
-0.00017692059
-0.026452747
-0.00026763078
-0.028526089
-0.00034184459
-0.030218836
-0.00039588667
-0.032349069
-0.00042316659
-0.034448778
-0.0004055284
-0.03566475
-0.00033149362
-0.036304371
-0.00019852278
-0.0367862
0
-0.038543288
7.037695e-15
-0.042558311
0
-0.046677745
6.5609209e-15
-0.051183142
-7.2066918e-19
-0.055915982
6.1153945e-15
-0.060830228
0
-0.066065746
-5.3110927e-19
-0.071685398
0
-0.077670458
0
-0.084063616
1.0269976e-14
-0.09091499
0
-0.09824184
-9.5860315e-15
-0.10603488
0
-0.11423241
0
-0.12272315
5.6134141e-19
-0.13144848
-8.3699617e-15
-0.14044155
8.0941033e-15
-0.14975627
-1.5656473e-14
-0.15945729
0
-0.16949167
0
-0.17967005
1.4160234e-14
-0.19014606
0
-0.20144024
-1.3235284e-14
-0.21403262
1.2792648e-14
-0.22805817
0
-0.2432968
-1.1943093e-14
-0.25954902
0
-0.27688498
0
-0.29636336
0
-0.31855852
-0.023682366
0
-0.020857283
7.6311163e-05
-0.018054182
0.000129505
-0.014461589
0.00014786245
-0.010492173
0.00013271926
-0.0069305252
9.3777309e-05
-0.0036557537
3.453335e-05
-9.0891783e-05
-0.026555868
-0.00018759659
-0.028685491
-0.00027693536
-0.030466089
-0.00035383499
-0.032713267
-0.00041242785
-0.034956896
-0.00043555096
-0.036337749
-0.00041056099
-0.037170449
-0.0003343263
-0.037888897
-0.00020030778
-0.038273245
0
-0.039788699
0
-0.043655609
6.5597528e-15
-0.047881208
7.2138354e-19
-0.052322797
-6.1137004e-15
-0.056919343
-5.901752e-15
-0.061818825
0
-0.067089463
5.5016713e-15
-0.072699255
-1.0626198e-14
-0.078684941
0
-0.085100815
0
-0.09196867
-9.5756198e-15
-0.099307149
-9.2534026e-15
-0.10710608
0
-0.11526818
8.6447924e-15
-0.12367797
5.0162538e-19
-0.13231421
-8.0814337e-15
-0.14122433
1.5631047e-14
-0.15046068
0
-0.16008711
1.4620352e-14
-0.17003697
1.4138866e-14
-0.18013279
0
-0.19054946
0
-0.20185342
0
-0.21451548
1.2348967e-14
-0.22859675
1.1932719e-14
-0.24381621
-1.1527435e-14
-0.26005372
2.2267958e-14
-0.27737728
0
-0.29680476
-2.0758075e-14
-0.31895817
-0.026612672
0
-0.023715707
8.3963598e-05
-0.020866485
0.00014887485
-0.018035937
0.00018497681
-0.014441552
0.00018263106
-0.01047823
0.00014853312
-0.0069324506
9.6351861e-05
-0.003672598
3.2287962e-05
-9.6320416e-05
-0.028795234
-0.00019406742
-0.030654589
-0.00028662105
-0.033002495
-0.00036856692
-0.035374452
-0.00042442208
-0.036909678
-0.00044089322
-0.037924694
-0.00041408616
-0.038859533
-0.00033739306
-0.039488151
-0.00020068097
-0.039306267
0
-0.040808922
6.5587319e-15
-0.044780754
0
-0.048947949
-6.1116414e-15
-0.053246679
-5.3483674e-19
-0.057829938
0
-0.062771845
-5.4991654e-15
-0.068028776
-5.31015e-15
-0.073632012
-1.0255533e-14
-0.079638624
0
-0.086067864
-9.5667913e-15
-0.092949247
-9.2435797e-15
-0.10031286
-8.9323599e-15
-0.1081128
0
-0.11622101
0
-0.12453839
-8.0690447e-15
-0.13308293
-7.8029e-15
-0.14191216
0
-0.15107492
0
-0.16063102
0
-0.17050705
0
-0.18052312
1.3199989e-14
-0.19089358
1.2761476e-14
-0.20221555
1.2335271e-14
-0.21496522
1.1920593e-14
-0.2290922
2.8070291e-19
-0.24428683
0
-0.26049255
0
-0.27779398
0
-0.29717809
0
-0.31927214
-0.028853518
0
-0.026631697
9.1081252e-05
-0.023716868
0.00016382925
-0.020845947
0.00021270684
-0.018001792
0.00022852941
-0.014412664
0.00020440234
-0.010458694
0.00015242622
-0.0069364605
8.9911812e-05
-0.0036970065
2.6231329e-05
-9.9622706e-05
-0.030783403
-0.00020081483
-0.03321668
-0.00029845113
-0.035700251
-0.00037917343
-0.0373794
-0.00042956948
-0.038564704
-0.00044468065
-0.039701438
-0.00041784725
-0.040555073
-0.00033793271
-0.040624879
-0.00019907003
-0.040113518
0
-0.041859605
0
-0.045779698
0
-0.049800645
5.2795008e-19
-0.0540866
0
-0.058718842
-5.4969522e-15
-0.063644062
0
-0.068887581
5.1242768e-15
-0.074510993
-9.89767e-15
-0.08052896
0
-0.086966996
9.2345346e-15
-0.0938814
0
-0.10127809
0
-0.10906161
0
-0.11708638
-8.0575224e-15
-0.12530198
0
-0.1337595
0
-0.14251272
0
-0.1516076
0
-0.16109946
0
-0.17090481
0
-0.18085321
0
-0.19118017
0
-0.20253608
0
-0.21537662
1.1506674e-14
-0.22955125
2.4391939e-19
-0.24469535
2.147729e-14
-0.26087323
0
-0.27814825
0
-0.29747088
1.9331301e-14
-0.31951545
-0.030850715
0
-0.028871818
9.6450094e-05
-0.026613147
0.00017765282
-0.023676749
0.00023407408
-0.020795461
0.0002628158
-0.017951527
0.00025584783
-0.01437418
0.00020975134
-0.010433471
0.00014195235
-0.006943572
7.2845327e-05
-0.0037280985
1.5697444e-05
-0.00010306593
-0.033355833
-0.00020901609
-0.035934488
-0.00030694245
-0.037745152
-0.00038374252
-0.039088845
-0.00043324897
-0.040412529
-0.00044870703
-0.041479834
-0.00041851876
-0.041782585
-0.00033525974
-0.041533665
-0.00019685008
-0.040945912
0
-0.04279267
0
-0.046570122
0
-0.050576952
0
-0.054917802
-4.7860639e-19
-0.059529886
-5.3052063e-15
-0.064435845
5.1219637e-15
-0.06969983
-3.960129e-19
-0.07533368
0
-0.081353911
-9.2255349e-15
-0.087825567
7.1789e-19
-0.094790246
0
-0.10220575
0
-0.1099375
8.0460517e-15
-0.11785893
0
-0.12597424
3.4433967e-19
-0.13435129
-7.2744302e-15
-0.14303348
-7.0355853e-15
-0.15206404
0
-0.16149919
0
-0.1712439
2.2934206e-19
-0.1811246
-2.4606968e-14
-0.19142014
1.1893241e-14
-0.20281533
0
-0.21575519
-1.1107009e-14
-0.22994853
-1.0730031e-14
-0.24505346
0
-0.26119289
-2.001643e-14
-0.27843243
0
-0.29770354
0
-0.31967938
-0.033419699
0
-0.030869844
9.974764e-05
-0.028849562
0.00018810063
-0.026547614
0.00025375509
-0.023594459
0.00028914984
-0.020713941
0.00029421105
-0.017884738
0.00026264356
-0.014326281
0.00019529878
-0.010402215
0.00011466532
-0.006953616
4.3447458e-05
-0.0037627237
0
-0.00010721961
-0.036077597
-0.0002148899
-0.038005788
-0.00031060188
-0.039495741
-0.00038696946
-0.04099155
-0.00043709949
-0.042260426
-0.00044939029
-0.042789616
-0.00041523282
-0.042784338
-0.00033156178
-0.042466238
-0.00019435911
-0.041660115
0
-0.043527512
0
-0.047288789
0
-0.051354331
4.7710259e-19
-0.055673099
5.3027298e-15
-0.060261167
-5.1195363e-15
-0.065188246
0
-0.070463275
-4.772797e-15
-0.076092871
9.2187242e-15
-0.082142016
0
-0.088671565
0
-0.09567992
0
-0.10307841
-8.0351435e-15
-0.11072096
0
-0.11853352
7.5106114e-15
-0.12656179
7.262962e-15
-0.13486552
2.4166593e-19
-0.14347949
0
-0.15245419
0
-0.16184022
0
-0.17152541
-1.2285986e-14
-0.18134887
-1.1877955e-14
-0.19161673
-2.2962165e-14
-0.2030599
1.7924409e-19
-0.21607779
-1.0720659e-14
-0.23029432
1.7092264e-19
-0.24534527
-1.0002131e-14
-0.26145657
2.3367836e-19
-0.27866026
0
-0.29786756
0
-0.319772
-0.036130531
0
-0.033425295
0.0001031453
-0.030840013
0.00019454676
-0.028774089
0.00026869282
-0.026435553
0.00031340554
-0.023469064
0.00032356439
-0.020600997
0.0003019484
-0.017800134
0.00024463544
-0.014267073
0.00015766629
-0.010365312
6.8147129e-05
-0.0069634901
0
-0.0034548178
0
-0.0001101819
-0.038161031
-0.00021741152
-0.039783961
-0.00031316245
-0.041437326
-0.00039034238
-0.042894984
-0.00043775166
-0.043642227
-0.00044592095
-0.043874143
-0.0004106931
-0.043806799
-0.000327344
-0.043274881
-0.00019104481
-0.042184015
0
-0.044196224
0
-0.048014515
0
-0.052058225
5.3013647e-15
-0.056348752
-4.1210338e-19
-0.060959867
0
-0.065899111
4.7698429e-15
-0.071163749
-4.6059578e-15
-0.076816354
0
-0.082925005
0
-0.089505054
-8.3031929e-15
-0.096512542
-5.8350518e-19
-0.10385224
-7.7568485e-15
-0.11140071
0
-0.11912022
7.2514258e-15
-0.12707232
1.4025216e-14
-0.13530685
0
-0.14385951
0
-0.15278467
0
-0.16212785
0
-0.17176094
0
-0.18152969
-1.1466722e-14
-0.19177828
1.1082953e-14
-0.20325999
1.0709962e-14
-0.21635182
1.0347288e-14
-0.23056343
9.9950646e-15
-0.24558487
1.9305242e-14
-0.2616633
-1.8640185e-14
-0.2788313
0
-0.29797667
-0.0029076466
-0.31688395
-0.038210632
0
-0.03611495
0.00010718893
-0.033371942
0.00020111591
-0.030745873
0.00027793024
-0.02864614
0.00033194598
-0.026276842
0.00035067873
-0.023301842
0.00033186913
-0.020455036
0.00028108804
-0.017696401
0.00019756311
-0.014195635
9.3617717e-05
-0.010321398
0
-0.0064135735
0
-0.0037185187
0
-0.0001114545
-0.039953198
-0.00021916048
-0.041750102
-0.0003158215
-0.043381891
-0.00039091956
-0.04433754
-0.00043442723
-0.044798635
-0.0004410955
-0.044975242
-0.00040546007
-0.044699048
-0.00032180538
-0.043891128
-0.00018722852
-0.042646419
0
-0.044873449
0
-0.048670996
0