/*--------------------------------*- C++ -*----------------------------------*\
| =========                 |                                                 |
| \\      /  F ield         | OpenFOAM: The Open Source CFD Toolbox           |
|  \\    /   O peration     | Version:  v2012                                 |
|   \\  /    A nd           | Website:  www.openfoam.com                      |
|    \\/     M anipulation  |                                                 |
\*---------------------------------------------------------------------------*/
FoamFile
{
    version     2.0;
    format      ascii;
    class       volScalarField;
    location    "86.6716637397513807";
    object      p;
}
// * * * * * * * * * * * * * * * * * * * * * * * * * * * * * * * * * * * * * //

dimensions      [0 2 -2 0 0 0 0];


internalField   nonuniform List<scalar> 
9200
(
0.021089136
0.023527685
0.033545204
0.026073963
0.036209522
0.062336258
0.031813439
0.038469503
0.066411392
0.0829533
0.037991147
0.043830121
0.070625879
0.087309126
0.10157456
0.047841797
0.049788984
0.078527619
0.092106815
0.1060138
0.11688803
0.060993103
0.058683908
0.08937317
0.10084721
0.11113895
0.12112166
0.12988689
0.076510262
0.070584435
0.10332245
0.11190158
0.12007652
0.12612385
0.13378379
0.14087645
0.088038755
0.087044046
0.12048755
0.1258849
0.13112642
0.1345837
0.13845057
0.14434932
0.15027503
0.09236416
0.10975452
0.14099132
0.14253451
0.14475397
0.14483777
0.14615663
0.14853838
0.15329111
0.15838674
0.09606271
0.1397256
0.16412273
0.1618574
0.16048758
0.15716812
0.1553555
0.1553271
0.15693767
0.16094507
0.16549283
0.10085242
0.17460806
0.18913125
0.18351921
0.17801014
0.17104437
0.16618101
0.16332074
0.16275929
0.16402696
0.16758991
0.17182247
0.10193711
0.21029849
0.21531607
0.20679658
0.19668329
0.18606807
0.17809413
0.17254366
0.1695299
0.16888541
0.17012311
0.17344748
0.17748342
0.099086556
0.24331365
0.24110549
0.2303738
0.21571591
0.20166185
0.19066498
0.18249593
0.17720065
0.17447413
0.17405368
0.17546629
0.17872928
0.18266613
0.094152608
0.27134773
0.2645952
0.25273634
0.23423364
0.21717374
0.20337143
0.19276894
0.18533487
0.18069228
0.17853218
0.17852302
0.18023436
0.1835774
0.18752999
0.086717773
0.29331853
0.28447243
0.27260837
0.25133632
0.2318899
0.21566641
0.20292137
0.19355414
0.18716862
0.18341573
0.18196665
0.18248831
0.18458806
0.18808295
0.19211433
0.077762728
0.30777447
0.29961689
0.28892892
0.26611632
0.2450791
0.22698196
0.2124885
0.20148412
0.1935709
0.18840209
0.1856363
0.18498073
0.18609057
0.18864182
0.19233206
0.19650637
0.066427988
0.31096766
0.30911378
0.30098034
0.27790208
0.25615111
0.23683833
0.22106188
0.2087673
0.19961138
0.19322867
0.18931181
0.18755097
0.18772112
0.18944566
0.19249407
0.19640919
0.20077196
0.049791655
0.30838496
0.31287852
0.30875906
0.28650009
0.26484591
0.24498618
0.22837371
0.21515377
0.20502825
0.19766704
0.19275439
0.19006218
0.18929784
0.19029365
0.19264372
0.19620723
0.20037486
0.20495398
0.029305907
0.30407101
0.31165737
0.31223014
0.29180065
0.27102343
0.25123407
0.23425276
0.22045842
0.20964908
0.20152704
0.19581641
0.19228788
0.19075978
0.19096735
0.19277334
0.19575192
0.19983309
0.20427518
0.20908928
0.0059898113
0.29673241
0.30635218
0.31173212
0.2937904
0.27459578
0.25545365
0.23855551
0.22454151
0.21333492
0.20468241
0.19834337
0.19414006
0.19190364
0.19148163
0.1926249
0.19521759
0.1988189
0.20341455
0.20814536
0.21320571
-0.018395411
0.28592311
0.29784164
0.30781766
0.29268911
0.27563761
0.25763536
0.24123839
0.22734534
0.21601792
0.20705577
0.20026281
0.19550684
0.19268485
0.19165639
0.19228054
0.19431686
0.19766827
0.20188068
0.20698454
0.21201251
0.21732427
-0.038747936
0.27167999
0.28708963
0.3011127
0.28886958
0.27437794
0.25788229
0.24233956
0.22888717
0.21770107
0.20863453
0.2015441
0.19635353
0.19302316
0.19147964
0.19158129
0.19319017
0.19607437
0.20015519
0.20496414
0.21056802
0.21589685
0.22146068
-0.053015978
0.25622233
0.27532034
0.29223241
0.28276254
0.27110775
0.25635041
0.24193963
0.22920887
0.21841976
0.20945184
0.20220791
0.1966778
0.19290833
0.19089287
0.19054165
0.19169858
0.19423045
0.19791744
0.20269904
0.20808912
0.21418354
0.21981307
0.22562594
-0.061034716
0.24105018
0.26285857
0.28172603
0.27481724
0.26615043
0.25322874
0.24013701
0.22841124
0.21824547
0.20956829
0.20231221
0.19652277
0.19235432
0.1899002
0.18911816
0.18988
0.19201722
0.19541075
0.19985777
0.20531385
0.21127012
0.21784444
0.22377154
0.22982732
-0.062991768
0.22703156
0.25008498
0.27004119
0.26546994
0.25983945
0.24872127
0.23702217
0.22656192
0.21729202
0.20910348
0.20195116
0.19596411
0.19141272
0.18852085
0.18732169
0.18770191
0.18949494
0.19253575
0.1967322
0.20190106
0.20800887
0.2145175
0.22156015
0.22777908
0.23406887
-0.060070655
0.21484151
0.23729277
0.2575882
0.25512223
0.25249869
0.24303792
0.23266425
0.22371044
0.21554277
0.20809112
0.20124254
0.19511324
0.19016339
0.18680335
0.18516764
0.1851773
0.18664156
0.1893764
0.19324402
0.19819012
0.20404914
0.21079014
0.21783857
0.2253368
0.23183958
0.23835212
-0.053378277
0.20369937
0.2247658
0.2447037
0.24413276
0.24443338
0.23638889
0.22710006
0.21990476
0.21305778
0.20664636
0.20023987
0.19407371
0.18870953
0.18481748
0.18269209
0.18231284
0.18347176
0.18592344
0.18950348
0.19412505
0.19977636
0.20630169
0.21366165
0.22123824
0.22917805
0.23595452
0.24267643
-0.043705531
0.19284213
0.21316445
0.23168034
0.23281446
0.23591564
0.22899123
0.22033151
0.21513128
0.20996671
0.20487288
0.19920417
0.19300867
0.18715893
0.18264819
0.17994377
0.17912546
0.17998266
0.18219679
0.18551881
0.18984562
0.19515782
0.20148144
0.20865763
0.21662616
0.22471963
0.23308541
0.24012337
0.24703945
-0.032332717
0.18209138
0.20300377
0.21875028
0.22142955
0.22717906
0.22106536
0.21231467
0.20935717
0.20621945
0.20272719
0.19817888
0.19202699
0.18566981
0.18039662
0.17698192
0.1756349
0.17617054
0.17818839
0.18132163
0.18538319
0.19036576
0.19632013
0.20329648
0.21111613
0.2196857
0.2282844
0.2370587
0.24434388
0.2514374
-0.01943499
0.17190357
0.1945347
0.20607575
0.21016257
0.21840782
0.21285714
0.2029551
0.20250573
0.20173044
0.20019256
0.19710282
0.19123912
0.18432848
0.17816971
0.17387697
0.17186418
0.17202299
0.17387852
0.17690736
0.18078945
0.18546019
0.1910244
0.19759149
0.20521468
0.21367719
0.22284187
0.23193297
0.24109623
0.24861245
0.25586535
-0.0040189543
0.16224048
0.18750257
0.19375899
0.19917318
0.20973747
0.20461177
0.19212921
0.19445776
0.19641105
0.19718889
0.19609651
0.19079436
0.18325889
0.17606693
0.17069854
0.16783923
0.16751983
0.1692271
0.17225072
0.17607412
0.18052116
0.18568733
0.19178412
0.19895544
0.20723213
0.21634195
0.22609595
0.23566465
0.24519502
0.25292425
0.26031746
0.013906712
0.15360783
0.18096138
0.18195745
0.18856502
0.20135175
0.19665819
0.1796224
0.18507161
0.19014867
0.19355471
0.1951401
0.19075145
0.18258989
0.17418148
0.16751848
0.16358602
0.16263304
0.16417342
0.16729578
0.17122008
0.17558407
0.18042441
0.18600314
0.19261342
0.20040109
0.20934827
0.21911258
0.22944878
0.23947767
0.24935094
0.25727351
0.26478721
0.034374434
0.14509405
0.17291423
0.17059407
0.17850495
0.19318867
0.18899354
0.16526377
0.17414248
0.18277275
0.18909363
0.19412534
0.19115149
0.18235061
0.17257843
0.16439793
0.15913102
0.15732625
0.15863566
0.16195478
0.16617236
0.17065436
0.1753066
0.18040441
0.18635351
0.19348952
0.20192388
0.21156574
0.22199208
0.23290065
0.24336924
0.25355889
0.26165366
0.26926755
0.05606822
0.13644547
0.16358325
0.16015383
0.16817453
0.18522828
0.18113047
0.14873555
0.16155676
0.17410351
0.18344738
0.19288651
0.19198644
0.18256002
0.17128688
0.16137458
0.15449672
0.15155656
0.15250912
0.15610698
0.16083604
0.16569563
0.17037454
0.17510179
0.18037429
0.18669663
0.1943999
0.20352558
0.21388993
0.2249838
0.23645114
0.24733553
0.25781288
0.26605753
0.27375112
0.078151413
0.12779794
0.15566752
0.15180777
0.15730809
0.17707246
0.172015
0.13157027
0.14731874
0.16402247
0.17626836
0.19109851
0.1932027
0.18316531
0.17028457
0.15846124
0.14969381
0.14527226
0.14566571
0.14959473
0.15507449
0.16062682
0.16562575
0.1701806
0.17483677
0.18026327
0.1870059
0.19534272
0.20521366
0.21632821
0.22809103
0.24009888
0.25137173
0.26210621
0.27047753
0.27823034
0.10006223
0.11980575
0.15058248
0.14368256
0.1466616
0.16810936
0.16247873
0.11519445
0.13265366
0.15246576
0.16723161
0.18840598
0.19465196
0.18404165
0.16948329
0.1556155
0.14471937
0.13841337
0.1379482
0.14222283
0.14870418
0.15531994
0.1610108
0.16568343
0.1698769
0.17439879
0.18002193
0.18727119
0.19632611
0.20700017
0.21888908
0.23131644
0.24384147
0.25547208
0.26643155
0.27490574
0.28269762
0.12101589
0.11266909
0.14554604
0.13336113
0.1354864
0.15827251
0.15290476
0.10091851
0.11624014
0.14013232
0.15632304
0.18431911
0.19627872
0.18494413
0.16871927
0.15274854
0.1395322
0.13091428
0.12916764
0.13374752
0.1414959
0.14959462
0.1564305
0.16160469
0.16558938
0.16929227
0.17370378
0.17962469
0.18749829
0.19736674
0.20890037
0.22158125
0.23466175
0.24767535
0.25963
0.27078117
0.2793341
0.28714549
0.13974464
0.10566465
0.13961104
0.12132231
0.12366115
0.14777381
0.14343085
0.084438983
0.099880367
0.12523471
0.14407559
0.17868898
0.19758282
0.18557936
0.16772112
0.14970589
0.13406941
0.12269219
0.1190917
0.12386902
0.13315574
0.14321927
0.15173109
0.15788628
0.16201947
0.16509406
0.16829305
0.1727008
0.1790699
0.18770725
0.19848784
0.21093127
0.22441283
0.23812733
0.25159579
0.26383812
0.27514693
0.28375453
0.29156658
0.15446937
0.098185689
0.13287954
0.10839208
0.11192064
0.13712256
0.13353287
0.068448242
0.077167151
0.1086149
0.13020183
0.17351478
0.1981792
0.18531146
0.16616289
0.14626783
0.12819167
0.11368157
0.10744081
0.11221105
0.12332769
0.13588431
0.14670412
0.15441257
0.15915574
0.16190385
0.16399634
0.16679012
0.17137308
0.17837801
0.18792978
0.19971707
0.21311023
0.2273906
0.24171205
0.25559691
0.26808843
0.27952051
0.28815906
0.29595364
0.089340279
0.1634835
0.12473457
0.094388363
0.099583641
0.12655115
0.12337346
0.053409143
0.053650338
0.085484885
0.11412949
0.16752383
0.19375672
0.18355101
0.16350971
0.14219283
0.12175299
0.10376257
0.09389972
0.098311741
0.11157859
0.1272277
0.14106466
0.15100923
0.15692314
0.1597595
0.16096915
0.16215342
0.16474124
0.16973641
0.1775885
0.18820623
0.20108422
0.21545361
0.23051949
0.24541307
0.25967166
0.27237232
0.28389355
0.29253999
0.30030006
0.11407298
0.077995141
0.16594748
0.078628211
0.085677861
0.11576948
0.11331275
0.038356632
0.029699952
0.060167047
0.093749178
0.15474521
0.18756938
0.17774675
0.15927
0.13709048
0.11452852
0.09291516
0.078076971
0.081572746
0.097365872
0.11677588
0.13447899
0.14742941
0.15517941
0.15862643
0.15930045
0.15900165
0.1594846
0.16214978
0.16783545
0.17675572
0.18858233
0.20261923
0.21797582
0.23380212
0.2492257
0.26381189
0.27668092
0.28825789
0.29688989
0.30460028
0.059451248
0.0996939
0.064321938
0.16165596
0.069194616
0.10442357
0.10310098
0.023396369
0.005275767
0.032373236
0.071466994
0.13717196
0.17751319
0.17108322
0.15205899
0.1307565
0.10623164
0.080888767
0.059691833
0.061208486
0.080026774
0.10386468
0.12644817
0.14336172
0.15369972
0.158389
0.15899682
0.15747613
0.15586714
0.15597053
0.15906087
0.1657387
0.1759446
0.18910605
0.20435032
0.22068836
0.23723842
0.25314345
0.26800877
0.28100542
0.29260558
0.30120156
0.30884775
0.049052652
0.035855751
0.080740688
0.049093535
0.15133474
0.092071362
0.092292221
0.0095962915
-0.019123547
0.0038985011
0.047871956
0.11495173
0.16535041
0.15539523
0.14275455
0.12238799
0.096927479
0.06775314
0.038232184
0.036217396
0.058787749
0.0877456
0.1163602
0.13836883
0.15218477
0.15883383
0.15996818
0.15762732
0.15408287
0.15151068
0.15164926
0.15555532
0.16353273
0.175226
0.18982477
0.20630241
0.22359905
0.24082551
0.25715846
0.27225324
0.28533703
0.29692847
0.30546787
0.31303406
0.078282786
0.024203825
0.0070814548
0.05620318
0.033156725
0.13642541
0.08019342
-0.0025762026
-0.042150277
-0.023616698
0.024199199
0.088643569
0.14685024
0.14171195
0.12809322
0.11297914
0.086062289
0.053294996
0.014065885
0.005049183
0.032674318
0.067540694
0.1035053
0.13194191
0.15024014
0.15966955
0.16201259
0.15939589
0.15422996
0.14901533
0.14595284
0.14660956
0.15174246
0.16131606
0.1746726
0.19078267
0.20849573
0.22671159
0.24455818
0.26126218
0.2765359
0.28966618
0.30121809
0.30968237
0.3171564
0.065988294
0.062888696
-0.0049997971
-0.024279774
0.027339768
0.017307831
0.11831088
-0.012066905
-0.062104555
-0.049290081
0.0018638455
0.059926468
0.1234479
0.11977372
0.11295025
0.099959163
0.074706722
0.036959222
-0.014358626
-0.033594972
0.00047147803
0.042147899
0.086874092
0.12345507
0.14737289
0.16046035
0.16482677
0.16259639
0.15628787
0.14863313
0.14226324
0.13928287
0.14098247
0.14775236
0.1591932
0.1743548
0.19201831
0.21094483
0.23002613
0.24842984
0.26544518
0.28084573
0.2939822
0.30546703
0.31384061
0.32122214
-0.017437687
0.050070778
0.046567272
-0.03545505
-0.057519364
-0.0036453897
0.0024336245
0.098054494
-0.07765296
-0.071653612
-0.017535046
0.029266881
0.093510876
0.090976064
0.08936931
0.088443695
0.061822334
0.018487865
-0.043854285
-0.081066728
-0.038451386
0.010125425
0.065136583
0.11219056
0.14300581
0.16070089
0.16794114
0.16691325
0.160097
0.15039005
0.14077939
0.13390529
0.13164949
0.13493185
0.14372785
0.15726888
0.17433707
0.19356293
0.21365909
0.23354031
0.25243212
0.26969512
0.28516952
0.2982759
0.30967127
0.31793963
0.32522196
-0.088130649
-0.018119244
0.034546353
0.028863701
-0.06508522
-0.092039613
-0.034464205
-0.010783521
0.076489149
-0.089452058
-0.034753132
-0.0033978367
0.0591115
0.054124416
0.056708655
0.069845925
0.052462415
0.0027345532
-0.077707281
-0.12987708
-0.085280911
-0.028363374
0.036077818
0.096894115
0.13647687
0.15978119
0.17085087
0.17186831
0.16534741
0.1541654
0.14157853
0.13072188
0.12410004
0.12325
0.1286444
0.13981657
0.15564242
0.17467492
0.19544066
0.21664393
0.23724877
0.25655203
0.27399591
0.28949601
0.30254413
0.31382864
0.32197278
0.32910527
-0.10186152
-0.092589037
-0.016102369
0.021088439
0.012218515
-0.093270307
-0.1255887
-0.062990574
-0.021409493
0.055786457
-0.050281653
-0.034358058
0.021657313
0.010627162
0.016629593
0.042238638
0.038618017
-0.0084331544
-0.1016887
-0.18397526
-0.13917342
-0.072006777
-0.00012664303
0.076135226
0.12665729
0.15701782
0.17279586
0.17691669
0.1715621
0.15968105
0.14458895
0.12986156
0.11861679
0.11307435
0.11431841
0.12231913
0.13616301
0.15440321
0.17541463
0.19766973
0.21989995
0.24113906
0.26077063
0.2783339
0.29382325
0.30678707
0.31792973
0.32592641
0.33286537
-0.062493542
-0.1079667
-0.091575268
-0.011948193
0.010191287
-0.0022991623
-0.11934055
-0.15565549
-0.088001683
-0.030020318
0.038594552
-0.059261221
-0.01691282
-0.03725469
-0.031823536
0.0065054882
0.018011217
-0.021873101
-0.12211984
-0.22644069
-0.20445877
-0.12340843
-0.040433012
0.051076914
0.11278847
0.15142722
0.17314386
0.18126886
0.1781489
0.16649419
0.14958006
0.13130742
0.11537588
0.10471195
0.10110977
0.10511236
0.11615659
0.13290173
0.15362924
0.17659437
0.20026124
0.22341742
0.24518978
0.26507185
0.28270913
0.2981544
0.31099044
0.32195172
0.32979199
0.33658048
-0.076738868
-0.070210162
-0.10803967
-0.084813898
-0.0048716006
0.0021847693
-0.015298668
-0.14215411
-0.18044137
-0.10875539
-0.037576341
0.026221597
-0.054797507
-0.090164564
-0.087603101
-0.03703428
-0.0091536151
-0.039712496
-0.1405759
-0.27927303
-0.26451993
-0.18770966
-0.086049907
0.02236688
0.094967242
0.14240294
0.17097673
0.18429354
0.18423033
0.17403333
0.15615232
0.1348844
0.11441572
0.098376901
0.08933261
0.088527247
0.095899085
0.11034935
0.13015443
0.15338808
0.17824212
0.20321151
0.22717353
0.24938271
0.26945869
0.287129
0.30246897
0.31511261
0.32587982
0.33358897
0.3404253
-0.090263111
-0.08469451
-0.073447243
-0.10158003
-0.072605036
0.0056959835
-0.0015324859
-0.027862544
-0.15982841
-0.19899404
-0.12409785
-0.043982772
0.017534573
-0.14697336
-0.14742977
-0.088115979
-0.041944464
-0.062385359
-0.16127285
-0.32212074
-0.34647382
-0.2493161
-0.1378354
-0.012126932
0.072440708
0.12919983
0.16557819
0.1852316
0.18895031
0.18156502
0.16376916
0.14024403
0.11562027
0.094157673
0.079223989
0.072863543
0.075669599
0.086942562
0.10507695
0.12803027
0.15373349
0.18036542
0.20649828
0.23114864
0.25372529
0.27394428
0.29156458
0.30670181
0.31912692
0.32975243
0.3375307
0.34443296
-0.2034995
-0.12188408
-0.080840421
-0.070427605
-0.08910056
-0.055501304
0.020069472
0.0021687752
-0.039941404
-0.17110641
-0.20989833
-0.13391732
-0.048570246
0.011896011
-0.20948695
-0.142742
-0.079872035
-0.089220509
-0.18423424
-0.36037855
-0.42366034
-0.33798473
-0.18998389
-0.050096504
0.046513763
0.11084435
0.15607008
0.18298206
0.19416434
0.18848103
0.17174913
0.14689799
0.11869948
0.091996403
0.070911806
0.058361387
0.055728793
0.06288502
0.07849605
0.10050531
0.12662071
0.15469166
0.18294584
0.21010205
0.23535681
0.25823861
0.27848951
0.2959189
0.3108115
0.32311201
0.33383507
0.34162921
0.34851469
-0.27090721
-0.25491975
-0.14810499
-0.067067735
-0.061963283
-0.071067442
-0.034899353
0.037837577
0.013323093
-0.049267172
-0.17468178
-0.21466236
-0.13784593
-0.052178873
0.0074959195
-0.1980208
-0.1227239
-0.11942135
-0.2073616
-0.4014246
-0.50264003
-0.43157915
-0.26450512
-0.097824766
0.019585013
0.089886347
0.14138537
0.1768166
0.19432069
0.19398166
0.17941281
0.1542021
0.12322168
0.091665738
0.06439049
0.045171168
0.036294882
0.038371202
0.050516889
0.070800066
0.096779005
0.12598094
0.15625315
0.18596668
0.21404684
0.23983011
0.26287092
0.28295725
0.30013098
0.31492579
0.32744999
0.33804317
0.34581215
0.35266085
-0.25201507
-0.32777549
-0.29695885
-0.16984503
-0.047812449
-0.048012782
-0.047701484
-0.011343278
0.057688283
0.029263506
-0.05420372
-0.17412892
-0.2117559
-0.13701565
-0.053093169
0.002296371
-0.16689619
-0.15169322
-0.23066078
-0.44034839
-0.57931498
-0.5349781
-0.35131827
-0.16341903
-0.020383166
0.068283121
0.12371525
0.16579606
0.19089845
0.19710294
0.18582522
0.16147434
0.12858759
0.09279664
0.059495064
0.03332769
0.017517501
0.013567932
0.021239539
0.038900256
0.064071486
0.093996282
0.12611818
0.15840844
0.18946677
0.21837994
0.24450159
0.26743384
0.28726125
0.30439697
0.31958155
0.33189051
0.34235785
0.3500694
0.35687102
-0.20809752
-0.30230622
-0.3743261
-0.32779204
-0.18524912
-0.029370297
-0.026079988
-0.02079614
0.013891823
0.079179291
0.047357155
-0.056566459
-0.16748501
-0.20216687
-0.13065536
-0.049235503
-0.003535075
-0.1836554
-0.25458845
-0.46999244
-0.6493463
-0.63926994
-0.45043622
-0.23478432
-0.069194258
0.032255911
0.10527599
0.15109604
0.18374001
0.19622974
0.19043797
0.16784064
0.13415604
0.094845798
0.055923443
0.022723103
-0.00054732983
-0.011405871
-0.0092534382
0.0047838686
0.028347029
0.058469853
0.092192018
0.12703675
0.16121825
0.1935147
0.22301629
0.24911834
0.27180883
0.29168325
0.30947925
0.32430783
0.33646274
0.346755
0.35439907
0.36114408
-0.20890494
-0.24218654
-0.34202154
-0.40728732
-0.34538409
-0.19113698
-0.016533957
0.0022778882
0.0081528579
0.040730665
0.099552868
0.067452086
-0.055280652
-0.15491918
-0.18535966
-0.11892381
-0.040068824
-0.0081280393
-0.27814381
-0.4859129
-0.70527672
-0.73782862
-0.55383374
-0.31058711
-0.12639329
-0.0075406012
0.071462067
0.1357882
0.17193555
0.19323978
0.19166521
0.17272693
0.13908952
0.097226267
0.05319822
0.013122817
-0.017962509
-0.036500276
-0.040910139
-0.031585464
-0.01056351
0.019100969
0.054072856
0.091394211
0.12882948
0.16478119
0.19800415
0.22762171
0.25352063
0.27638805
0.29728245
0.31460157
0.3291985
0.34112081
0.35123609
0.35879619
0.36547611
-0.29676988
-0.22572735
-0.26332089
-0.36745351
-0.42390512
-0.34974648
-0.18830694
-0.0065355331
0.032487516
0.036612631
0.066213482
0.12436675
0.083432382
-0.047454225
-0.13639722
-0.16119665
-0.10252297
-0.028293905
-0.010343327
-0.48482041
-0.73979871
-0.82075661
-0.65319265
-0.39523153
-0.1894431
-0.055005255
0.035503524
0.10404348
0.15987482
0.18348766
0.19089391
0.17483976
0.14282702
0.099130245
0.050795309
0.004123561
-0.034899985
-0.061755156
-0.073723863
-0.070264222
-0.052849321
-0.024447222
0.011302562
0.050946261
0.09174229
0.13163734
0.16896637
0.20249863
0.23198417
0.2582402
0.28262738
0.3028863
0.31992593
0.33417646
0.34587155
0.35579409
0.36325649
0.36986378
-0.46785657
-0.30533197
-0.23537279
-0.26862118
-0.3768899
-0.42366477
-0.34208654
-0.17934036
0.0040386133
0.058925659
0.062482358
0.09510645
0.14255929
0.09930693
-0.032912425
-0.11131219
-0.13083418
-0.083025396
-0.01672105
-0.0098784489
-0.74665928
-0.87736629
-0.73931234
-0.48109178
-0.25773672
-0.10671936
-0.0081321536
0.070654491
0.1311744
0.17462427
0.18332505
0.17488753
0.14414694
0.10004133
0.047949357
-0.0047234684
-0.051684262
-0.087293889
-0.1077451
-0.11133498
-0.098719123
-0.072547425
-0.036638705
0.0050746161
0.049296275
0.093436818
0.1353018
0.17320835
0.20671981
0.23681292
0.26525154
0.28883388
0.3087405
0.32533269
0.33925697
0.35070531
0.36042324
0.36777603
0.37430595
-0.72247986
-0.43461148
-0.29752956
-0.23632138
-0.26217865
-0.37009958
-0.40793094
-0.32458865
-0.16651833
0.016444322
0.082421853
0.089374579
0.11826194
0.16143391
0.1153913
-0.013678837
-0.08013349
-0.095982189
-0.060946122
-0.0059017946
-0.0080041815
-0.8976569
-0.80255192
-0.55867092
-0.32777697
-0.16279627
-0.055504041
0.028419458
0.10088495
0.15091229
0.17731954
0.16910269
0.14359547
0.098709887
0.044200307
-0.01412188
-0.06867532
-0.11336387
-0.14307702
-0.15490703
-0.14839788
-0.12560356
-0.090332946
-0.046932514
0.00071794805
0.049407485
0.096289408
0.13909503
0.17714452
0.21160292
0.24476019
0.27218877
0.29534899
0.31466783
0.33084945
0.34442688
0.3556156
0.36511614
0.37234835
0.37880603
-0.87503915
-0.66458447
-0.38687731
-0.26931557
-0.22159812
-0.24642586
-0.34804479
-0.3791987
-0.2993542
-0.14951866
0.030205093
0.1066099
0.1129975
0.14329921
0.18083589
0.13096576
0.0079524531
-0.045457385
-0.058636472
-0.039509204
0.0045585977
-0.0056222181
-0.83413568
-0.61660346
-0.39499681
-0.22076857
-0.10710595
-0.018181056
0.059881948
0.12529382
0.15816919
0.1650306
0.13750675
0.095749677
0.038270689
-0.024453904
-0.086492238
-0.14022705
-0.17990495
-0.2011106
-0.2021147
-0.18403948
-0.15041915
-0.10588558
-0.054895591
-0.0013644695
0.051061538
0.099368468
0.14254765
0.18199913
0.22068257
0.25258744
0.27950806
0.30191934
0.32071275
0.33645919
0.34967903
0.36059266
0.36986563
0.37696303
0.38335421
-0.82536595
-0.80778483
-0.5823022
-0.32820694
-0.22618068
-0.1902348
-0.22029485
-0.31243273
-0.34003301
-0.26853725
-0.12676614
0.047504297
0.12815096
0.13807337
0.1675703
0.19840563
0.14623418
0.031733728
-0.01187001
-0.022112531
-0.01680896
0.013469045
-0.0030871235
-0.64636511
-0.45307738
-0.27719354
-0.16142775
-0.069533168
0.013073653
0.086486016
0.14045708
0.14922036
0.13355121
0.087259151
0.030905276
-0.036998054
-0.10540581
-0.16839527
-0.21839681
-0.25010431
-0.26009345
-0.24827561
-0.2175775
-0.17269258
-0.11859037
-0.059958641
-0.0014169534
0.053072129
0.10206949
0.14725449
0.19245485
0.22958878
0.26088802
0.28685524
0.30861268
0.32685311
0.34215483
0.35500119
0.36562713
0.37466648
0.38162162
0.3879343
-0.64519369
-0.77289375
-0.70834153
-0.48410287
-0.2645639
-0.17471534
-0.15174616
-0.18670153
-0.26548782
-0.29488983
-0.22918784
-0.10395149
0.072155769
0.14691997
0.16124116
0.18972466
0.21281984
0.16089299
0.058580163
0.02021258
0.0064104932
0.0040870023
0.020355204
-0.00072889524
-0.48522381
-0.32837378
-0.21647702
-0.1243442
-0.040262152
0.040594687
0.10569471
0.14116388
0.11880667
0.081511177
0.017878211
-0.050836591
-0.12666168
-0.1979896
-0.25893855
-0.30199264
-0.32252742
-0.31871192
-0.29249866
-0.24834464
-0.1915635
-0.12764549
-0.062381531
-0.00094304535
0.0546635
0.10646216
0.15939033
0.20267199
0.23908357
0.26917549
0.29432936
0.31540086
0.3330823
0.34792167
0.36038202
0.37071468
0.37951616
0.38631977
0.3925384
-0.48607406
-0.61516118
-0.68699323
-0.59034446
-0.38004628
-0.19908914
-0.11992155
-0.1085
-0.15065351
-0.21251495
-0.24259804
-0.19455146
-0.074041147
0.094883264
0.16286816
0.1821663
0.20809401
0.2234592
0.17335712
0.084062115
0.046270079
0.02858557
0.020641098
0.025779063
0.0014087189
-0.36996193
-0.26941198
-0.18156756
-0.098286658
-0.01479916
0.062280283
0.1124151
0.12158006
0.066354387
0.0082945053
-0.070523837
-0.14911011
-0.23018384
-0.30146834
-0.35703255
-0.38952478
-0.39566537
-0.37585662
-0.3338854
-0.27515801
-0.20590738
-0.13330481
-0.06406055
-0.00093508647
0.058514706
0.12066018
0.17120459
0.21362343
0.24850613
0.27759113
0.30189458
0.32227872
0.33938272
0.35374654
0.36581824
0.37585872
0.3843985
0.39105063
0.39716301
-0.39890714
-0.47231406
-0.56209826
-0.5829856
-0.46856291
-0.28273324
-0.133398
-0.065329284
-0.062512529
-0.11188951
-0.1611381
-0.2000717
-0.14957329
-0.04541987
0.11246656
0.17601876
0.19964913
0.22139922
0.22949003
0.18189907
0.10522321
0.065987372
0.045993473
0.033003497
0.029791594
0.00332983
-0.31730574
-0.23921115
-0.16043339
-0.077419475
0.0067085595
0.072705641
0.10340231
0.078996883
-0.0086997838
-0.086016959
-0.17761183
-0.26352076
-0.34704217
-0.41496899
-0.46123916
-0.47935236
-0.4682128
-0.43037508
-0.37084173
-0.29645055
-0.21593341
-0.13794662
-0.066260703
0.0020688811
0.075259216
0.13442993
0.18393816
0.22441878
0.25805458
0.28608951
0.30954816
0.32922567
0.34573919
0.35962864
0.37131895
0.38103528
0.3893074
0.39580718
0.40180434
-0.35804184
-0.41724028
-0.45332858
-0.49446327
-0.47961944
-0.35999257
-0.1974837
-0.07164819
-0.0150962
-0.01589678
-0.066604697
-0.12438604
-0.15025058
-0.10519473
-0.01120365
0.12657824
0.18595446
0.20790849
0.22946972
0.23063439
0.1857434
0.12023872
0.081221775
0.058687446
0.04190646
0.032544917
0.0050010618
-0.2952229
-0.22542127
-0.14643149
-0.060132011
0.019588145
0.067692778
0.071513933
0.012058148
-0.10619138
-0.20108481
-0.30314916
-0.39381429
-0.47668763
-0.53726587
-0.56987843
-0.57003516
-0.53878046
-0.48017349
-0.40120258
-0.31232202
-0.22460453
-0.14317749
-0.064513233
0.021976424
0.091435955
0.14935305
0.19639792
0.23533266
0.26767127
0.29467181
0.31726639
0.33622475
0.35215425
0.36558649
0.37684821
0.38623815
0.39423377
0.40058346
0.40645731
-0.34809716
-0.39130393
-0.4229767
-0.42811909
-0.42442151
-0.38325046
-0.26472735
-0.12454069
-0.018351745
0.030670325
0.025862351
-0.024086013
-0.083675396
-0.10024689
-0.05799532
0.022675369
0.13937732
0.19256515
0.21591265
0.23212386
0.22710528
0.18518075
0.12947426
0.091860913
0.06740643
0.048035956
0.034228731
0.0063932116
-0.29182212
-0.22101866
-0.13702166
-0.049187101
0.017550315
0.041788719
0.014258047
-0.078795111
-0.22578361
-0.33678835
-0.44720678
-0.53988466
-0.61827764
-0.66681401
-0.68147757
-0.66000897
-0.60470761
-0.52230016
-0.42486072
-0.32643738
-0.23395296
-0.14323321
-0.040654621
0.041133317
0.10906193
0.16383769
0.20896147
0.24629153
0.27736342
0.30331091
0.32503064
0.34328324
0.35865838
0.37156974
0.38240052
0.39145489
0.39917239
0.40537341
0.41111867
-0.35838696
-0.39681863
-0.41665671
-0.41901449
-0.39722312
-0.36013293
-0.29888163
-0.18736915
-0.06509814
0.027275738
0.066775285
0.067009484
0.011168538
-0.042723934
-0.050057167
-0.012286353
0.055339587
0.14944924
0.19648076
0.21882206
0.22973435
0.21966369
0.18134778
0.13398987
0.098283784
0.073032889
0.051792526
0.035063072
0.0074884676
-0.30030557
-0.22319859
-0.1334156
-0.051092698
-0.0052287831
-0.0088400975
-0.068683298
-0.19277904
-0.3674553
-0.49353226
-0.61021446
-0.70150569
-0.77059163
-0.80230401
-0.79445034
-0.74600165
-0.6620284
-0.55630002
-0.44631701
-0.34135622
-0.23654564
-0.11441267
-0.017785333
0.062111659
0.12602055
0.17840044
0.22153477
0.25731149
0.28710039
0.31198673
0.33285461
0.35044721
0.36518319
0.37757372
0.38796047
0.39668063
0.40411866
0.41016845
0.41579069
-0.38345806
-0.4238035
-0.44029911
-0.43571639
-0.41210633
-0.36687488
-0.30782223
-0.23177292
-0.1274925
-0.018635772
0.058533827
0.10643063
0.092791583
0.045632486
-0.0049937423
-0.0026816875
0.026885918
0.084864075
0.15700567
0.19789563
0.21743122
0.2232482
0.20982116
0.17554157
0.13476948
0.10157322
0.076233411
0.054044354
0.035217895
0.0083063455
-0.31834005
-0.23250845
-0.14073604
-0.0729769
-0.052241276
-0.085837354
-0.1762847
-0.32951252
-0.53187709
-0.67235014
-0.79270766
-0.87812211
-0.93263937
-0.94240956
-0.9050022
-0.82277161
-0.70972799
-0.58764606
-0.46877112
-0.34748811
-0.20146501
-0.086887521
0.0073720684
0.082105762
0.14301525
0.1929206
0.23414653
0.26835837
0.29686102
0.32072144
0.34080426
0.35762624
0.37172584
0.38357902
0.39352528
0.40191275
0.40905983
0.4149561
0.42047119
-0.42224
-0.46919242
-0.4869115
-0.47948652
-0.45087863
-0.40487472
-0.3407069
-0.26562399
-0.18195359
-0.087034986
0.0058687216
0.093889614
0.12701395
0.11717984
0.076506147
0.031176743
0.036333996
0.059964826
0.10817038
0.16311396
0.19729189
0.21285183
0.21433151
0.19918897
0.16856057
0.13312482
0.10255518
0.077615736
0.054996843
0.034879302
0.0088817734
-0.34648998
-0.25280512
-0.16655671
-0.1191661
-0.12553705
-0.18877569
-0.30756923
-0.48944658
-0.72058444
-0.87471406
-0.99500363
-1.0694233
-1.1035935
-1.0830182
-1.0064412
-0.88850844
-0.75439984
-0.62029394
-0.4798155
-0.3044896
-0.16806101
-0.056494969
0.03110719
0.10207016
0.15989058
0.20744503
0.24675908
0.27941075
0.30667829
0.32960611
0.34876215
0.36481993
0.3782626
0.38958547
0.39909673
0.40713445
0.41396953
0.41972987
0.42514004
-0.47610727
-0.53407066
-0.55618319
-0.54811937
-0.51600188
-0.46521832
-0.39944006
-0.31984174
-0.23493382
-0.15046709
-0.062104988
0.040506741
0.11438354
0.14659616
0.13925543
0.10229398
0.064412454
0.06663792
0.087638082
0.12569577
0.16767809
0.19458433
0.2065006
0.20456778
0.18865535
0.16111487
0.13002233
0.10189967
0.07765873
0.055007042
0.034212948
0.009251582
-0.388051
-0.29023864
-0.21619889
-0.19092563
-0.22533757
-0.31638245
-0.46244685
-0.67415827
-0.93586787
-1.1022946
-1.2176352
-1.2756218
-1.2793985
-1.2157199
-1.0959482
-0.951204
-0.80093093
-0.63814182
-0.42675652
-0.26361925
-0.13107802
-0.028129293
0.054711813
0.121804
0.17671926
0.22193279
0.25935181
0.29051547
0.31667454
0.33849056
0.35673112
0.37199957
0.38479721
0.39560103