/*--------------------------------*- C++ -*----------------------------------*\
| =========                 |                                                 |
| \\      /  F ield         | OpenFOAM: The Open Source CFD Toolbox           |
|  \\    /   O peration     | Version:  v2012                                 |
|   \\  /    A nd           | Website:  www.openfoam.com                      |
|    \\/     M anipulation  |                                                 |
\*---------------------------------------------------------------------------*/
FoamFile
{
    version     2.0;
    format      ascii;
    class       volVectorField;
    location    "86.6716637397513807";
    object      U;
}
// * * * * * * * * * * * * * * * * * * * * * * * * * * * * * * * * * * * * * //

dimensions      [0 1 -1 0 0 0 0];


internalField   nonuniform List<vector> 
9200
(
(2.6878442 0.019875158 0)
(2.6864776 0.069168012 8.9860489e-21)
(2.6314987 0.017584412 1.3554961e-22)
(2.682959 0.11404717 3.545015e-22)
(2.6255842 0.060802933 -4.376477e-22)
(2.6096655 0.01553779 -7.4448571e-21)
(2.6763261 0.16514288 -1.3844848e-20)
(2.6158846 0.098095224 1.3338756e-21)
(2.6033541 0.05384204 -9.8825816e-21)
(2.5829379 0.013241211 4.5150575e-21)
(2.6660184 0.22005763 -7.7481537e-22)
(2.6001787 0.13854436 -1.7478311e-21)
(2.5932734 0.085951012 -1.8674136e-21)
(2.5758556 0.045918396 -2.1759239e-21)
(2.563428 0.011018934 5.0165332e-21)
(2.6492718 0.28238026 7.0948765e-21)
(2.5769203 0.17831763 1.1095205e-21)
(2.576914 0.12016818 4.8733872e-21)
(2.5647996 0.072376152 -1.9492736e-21)
(2.5563931 0.038270367 4.8582861e-21)
(2.5472394 0.008954352 -4.1169285e-21)
(2.6238316 0.35212433 -4.1088224e-21)
(2.5445233 0.21885069 -4.3927059e-21)
(2.5547615 0.15253304 -1.4149589e-21)
(2.5474167 0.099629218 3.8857271e-22)
(2.5456021 0.059590874 6.7233592e-21)
(2.5404571 0.031155454 2.6008767e-21)
(2.5348213 0.0071156348 1.0239302e-22)
(2.5861341 0.42989179 0)
(2.5013608 0.25817396 -1.8034601e-22)
(2.5257603 0.18392808 -7.2802219e-21)
(2.5245318 0.123782 -1.281674e-21)
(2.5289812 0.080870003 2.4445048e-21)
(2.530226 0.047907513 4.2321629e-21)
(2.5284958 0.024792773 -1.2464626e-21)
(2.5253301 0.0055251614 2.8679756e-21)
(2.5246422 0.5132577 1.1028044e-21)
(2.4461718 0.29530185 3.6360607e-21)
(2.4894436 0.2123563 6.1899751e-21)
(2.4954745 0.14546892 1.7178022e-21)
(2.5077636 0.098605274 -8.324563e-22)
(2.514724 0.064057741 -5.0833269e-21)
(2.5191206 0.037630898 -4.839796e-21)
(2.5195392 0.019238771 3.9880065e-21)
(2.5183176 0.0041803701 4.8585322e-21)
(2.4260937 0.5893908 -1.4351324e-20)
(2.3813149 0.32800298 -3.7028447e-21)
(2.4450688 0.23595039 -2.5124491e-21)
(2.460435 0.16301658 5.6484582e-21)
(2.4817532 0.11327021 8.1106718e-21)
(2.4954104 0.076571611 3.4520762e-21)
(2.5051017 0.049527351 -2.2747008e-21)
(2.511106 0.028789312 -6.4194266e-21)
(2.5130944 0.014478746 -8.2472487e-22)
(2.5132974 0.0030560624 -1.0781465e-22)
(2.2897837 0.63520455 1.4762241e-20)
(2.3111821 0.35325852 4.3181897e-21)
(2.3913496 0.25190073 -5.2129585e-21)
(2.4197155 0.17537346 -3.7899314e-21)
(2.4515639 0.12344143 7.4912403e-22)
(2.4723271 0.085818319 4.5454399e-22)
(2.4880008 0.057963549 3.7034354e-21)
(2.4986234 0.037208022 3.5416581e-21)
(2.5056105 0.021310258 -2.2089064e-21)
(2.5086377 0.010447474 -1.0017797e-21)
(2.509878 0.0021129531 -4.1215157e-21)
(2.1243877 0.65175636 -1.1760933e-20)
(2.2336038 0.367148 -4.0898165e-21)
(2.3279567 0.25789485 -6.966796e-21)
(2.3744701 0.18093848 -4.0687733e-21)
(2.4177809 0.12828109 1.9432951e-21)
(2.4463054 0.090747049 -1.2720161e-21)
(2.4680189 0.063221956 -2.4027899e-21)
(2.4836673 0.042492292 -1.810446e-21)
(2.4946228 0.026919786 2.2610415e-21)
(2.5020465 0.015050456 8.7057618e-22)
(2.5057622 0.0070568841 -3.167713e-21)
(2.5077297 0.0013083277 -6.1573226e-21)
(1.9473041 0.6399182 3.6507814e-20)
(2.1470347 0.36109127 2.2592726e-21)
(2.258507 0.25154227 1.2377633e-20)
(2.3265025 0.1780947 8.8075405e-21)
(2.3813644 0.12673628 -1.4479957e-21)
(2.418101 0.090881201 -2.7358623e-21)
(2.4460749 0.064575747 2.3185073e-21)
(2.4665167 0.044837151 -2.9139787e-21)
(2.4816571 0.029794559 -1.9787414e-21)
(2.4924366 0.018404831 -1.4893729e-21)
(2.4999764 0.009840485 8.0792848e-22)
(2.504126 0.0042129099 -1.1870211e-21)
(2.5066145 0.00060671582 3.5598666e-22)
(1.7773025 0.59924717 2.1457398e-20)
(2.0555114 0.33047164 2.6208749e-20)
(2.1876282 0.2310674 -5.7351353e-21)
(2.2774847 0.16566424 7.8795454e-21)
(2.3435013 0.11817884 -4.4808624e-21)
(2.3888092 0.085686632 -1.4182696e-21)
(2.4229363 0.061762227 -6.6802092e-22)
(2.4480908 0.043797827 -1.3861712e-21)
(2.4670229 0.030035768 6.5375936e-22)
(2.481237 0.019444048 5.2570261e-22)
(2.4916008 0.011388136 8.4400411e-22)
(2.499051 0.0055055583 4.0599783e-21)
(2.5034452 0.0018255513 8.2526435e-22)
(2.5063443 5.3803514e-07 3.0794604e-21)
(1.626845 0.53640532 -1.5403289e-20)
(1.9654068 0.27756817 7.4685822e-21)
(2.1186753 0.1957797 -8.1097063e-21)
(2.2294745 0.14338864 3.2845537e-21)
(2.3058485 0.10229598 -4.3067172e-21)
(2.3596409 0.074950033 -5.4947071e-21)
(2.3995796 0.054552777 -2.8767923e-21)
(2.4291106 0.039258576 1.1188466e-21)
(2.4515876 0.027428981 1.7932097e-21)
(2.4687592 0.018172082 8.5378876e-22)
(2.4819331 0.0110252 -6.9100586e-22)
(2.4917578 0.0056026869 -2.468936e-21)
(2.4990107 0.0018827329 5.5162378e-23)
(2.5034968 -0.00019373092 -1.5338774e-21)
(2.5066816 -0.00048329988 6.1865824e-23)
(1.5022145 0.45986473 -1.0776003e-20)
(1.8834606 0.20645796 -2.3368663e-20)
(2.0549586 0.14609379 4.3468831e-21)
(2.184915 0.11150136 -1.0070224e-21)
(2.2702774 0.079316245 5.0230576e-22)
(2.3318272 0.058677266 1.819747e-21)
(2.3769652 0.043001333 -5.7421105e-21)
(2.4104418 0.031214337 2.1037844e-22)
(2.4359951 0.021944937 1.834671e-21)
(2.4557933 0.014559053 -2.7900749e-21)
(2.471274 0.008664099 -8.9765599e-22)
(2.4834011 0.0041582547 -1.1454807e-24)
(2.4926476 0.00080655611 -1.0500216e-21)
(2.4996541 -0.0011652879 -1.2948817e-21)
(2.504161 -0.0019265221 5.3941105e-21)
(2.5075386 -0.00087818731 9.0153948e-22)
(1.416373 0.37317123 -2.0404086e-21)
(1.8163845 0.12153211 -4.2089489e-21)
(2.0002016 0.084190817 3.4079095e-22)
(2.1458034 0.070871519 -6.1870288e-21)
(2.2385022 0.050063195 -4.1794395e-21)
(2.3064845 0.037291453 1.8308955e-20)
(2.3560767 0.027381722 -2.5382958e-21)
(2.3928845 0.019864877 -1.0710527e-21)
(2.4209874 0.013733089 -6.6526738e-23)
(2.4428964 0.0086250631 -8.7483387e-22)
(2.4603232 0.0044140259 -3.9609988e-22)
(2.4742613 0.0010036941 1.9003465e-22)
(2.4854042 -0.0014846598 8.1880925e-22)
(2.4940838 -0.0032135242 3.4557549e-21)
(2.5008124 -0.0037502999 2.5377203e-21)
(2.5053297 -0.0034247614 3.5699647e-21)
(2.508803 -0.0012694768 -4.5802167e-24)
(1.3612907 0.28262201 -2.2009093e-21)
(1.7685195 0.030072875 -2.9691558e-21)
(1.9575358 0.013607225 -5.5299918e-22)
(2.1136386 0.023194947 9.5837652e-23)
(2.2118936 0.015840471 -5.3987948e-22)
(2.2845944 0.011564797 -7.9152495e-21)
(2.3377917 0.0082305535 -1.8695605e-21)
(2.3771927 0.0055760139 -4.9075862e-21)
(2.4072051 0.0030663739 -9.5483078e-22)
(2.430684 0.00061109175 3.7053347e-21)
(2.4495464 -0.0016920186 1.1970544e-21)
(2.4649322 -0.0036572656 6.4690721e-23)
(2.4775228 -0.0052409176 -7.9473496e-23)
(2.4877781 -0.0061830763 9.0249512e-23)
(2.4959346 -0.006630864 6.1510027e-22)
(2.502373 -0.0059804547 -1.3631217e-22)
(2.5068738 -0.0047293021 -6.9340074e-21)
(2.510405 -0.0016027623 -1.1640971e-21)
(1.3284348 0.1892541 -2.6703714e-21)
(1.7420166 -0.064366425 -1.2772416e-21)
(1.9287112 -0.06225992 1.6271692e-22)
(2.0893022 -0.029726302 7.7128068e-21)
(2.1911383 -0.022263012 7.5278095e-21)
(2.2668063 -0.017681793 -7.5358918e-21)
(2.3227005 -0.013922583 8.0507893e-21)
(2.3639364 -0.011224187 -6.3124834e-21)
(2.3952033 -0.0097011065 -1.4646947e-21)
(2.4196442 -0.0092096396 1.6249478e-21)
(2.439435 -0.0093713415 6.2265793e-22)
(2.4558161 -0.0098008671 -3.9432649e-22)
(2.4695058 -0.010178923 2.3340409e-22)
(2.480939 -0.010408446 5.565303e-22)
(2.4904162 -0.010157425 1.059979e-21)
(2.4981002 -0.0095734187 -7.8698541e-22)
(2.5042624 -0.0079310167 -5.2432458e-21)
(2.5087134 -0.005878024 -5.2603881e-22)
(2.512275 -0.0018815737 -3.78713e-21)
(1.3163562 0.093558672 6.9406593e-20)
(1.7377052 -0.15824346 -7.4394182e-22)
(1.9141248 -0.13923113 -1.2428984e-21)
(2.0733006 -0.08528718 -4.6722146e-22)
(2.1764235 -0.062872517 4.0941575e-21)
(2.2534994 -0.049384935 8.6285505e-22)
(2.3111677 -0.038375656 7.6330101e-23)
(2.3535517 -0.029986732 8.7474677e-22)
(2.3854128 -0.024106224 -5.3370233e-21)
(2.4102009 -0.020438839 -1.2418057e-22)
(2.4303668 -0.018337356 3.7073921e-22)
(2.4472947 -0.017113728 1.4004125e-22)
(2.4617034 -0.01629236 -3.4993202e-23)
(2.4739972 -0.015544965 1.8909466e-22)
(2.4844455 -0.014765178 -7.0807829e-24)
(2.493247 -0.013580426 -8.2469097e-22)
(2.5005074 -0.012144145 8.3133392e-23)
(2.5064141 -0.0096529808 1.1530642e-21)
(2.5107929 -0.0068942919 3.0119073e-21)
(2.5143561 -0.002125923 1.4729516e-21)
(1.3277906 -0.0040265147 -1.6025392e-21)
(1.7538312 -0.24947241 6.595329e-21)
(1.9124273 -0.2136749 -1.1725125e-22)
(2.0657203 -0.14058986 6.0652023e-21)
(2.1677111 -0.10430895 2.2863961e-21)
(2.244852 -0.082317663 2.0340045e-21)
(2.303431 -0.064312608 -2.7705963e-21)
(2.3463633 -0.050066745 7.1245985e-21)
(2.3781987 -0.039620314 -4.2196741e-21)
(2.4026938 -0.032612347 -8.9931119e-22)
(2.4226572 -0.028190376 1.848468e-21)
(2.4396541 -0.025332283 -1.1112607e-21)
(2.454408 -0.02327952 3.5008192e-22)
(2.4672458 -0.021615825 -6.1706842e-23)
(2.4783837 -0.020060841 1.8592615e-22)
(2.4879995 -0.018515829 1.1489688e-23)
(2.4962212 -0.016580535 -1.15786e-21)
(2.503106 -0.014419019 -2.0324617e-22)
(2.5087752 -0.011183871 3.1716899e-21)
(2.5130633 -0.0077946204 -3.7042042e-21)
(2.5166015 -0.0023388043 4.0807667e-21)
(1.3758789 -0.10031439 -6.3174956e-20)
(1.7879544 -0.3359935 3.0232393e-22)
(1.9219081 -0.28299252 -1.3609554e-20)
(2.065791 -0.19356179 6.4056625e-21)
(2.1643661 -0.14527465 4.211883e-21)
(2.2405705 -0.11554967 7.0523555e-22)
(2.2994044 -0.091050616 -2.5311851e-21)
(2.3424591 -0.070945323 -8.8597343e-22)
(2.3737502 -0.055748862 -1.7584968e-22)
(2.3973441 -0.04526275 -2.7899434e-21)
(2.4165098 -0.038509416 3.6544155e-21)
(2.433091 -0.034095435 -8.8757008e-22)
(2.4478213 -0.030914902 -2.1617646e-22)
(2.4609163 -0.028341536 3.5703266e-22)
(2.472485 -0.026096099 -3.1384758e-23)
(2.482662 -0.023953168 -6.2732215e-23)
(2.4915782 -0.021812501 -1.0755787e-22)
(2.4993068 -0.01925111 2.9691276e-22)
(2.5058589 -0.016451357 1.8301943e-22)
(2.5113031 -0.012549073 3.0220294e-22)
(2.5154832 -0.0085904983 -8.7649153e-24)
(2.5189693 -0.0025226995 0)
(1.4557559 -0.18986606 0)
(1.8347481 -0.41486653 9.7876155e-22)
(1.9404189 -0.34511249 -2.067636e-20)
(2.0723036 -0.24258411 -3.6480063e-21)
(2.1655329 -0.18467213 1.8747233e-21)
(2.2401123 -0.14831969 2.6905955e-21)
(2.2988298 -0.11801146 5.8516535e-22)
(2.3417807 -0.09216782 -1.8004724e-21)
(2.3721554 -0.072053726 3.2331488e-22)
(2.3942857 -0.057933783 2.421376e-22)
(2.4120479 -0.048853769 2.8867529e-21)
(2.4277084 -0.043026523 7.2980249e-22)
(2.4420581 -0.038889518 -2.5030747e-21)
(2.4551557 -0.035544804 3.989337e-22)
(2.4669412 -0.032617786 -2.0008941e-23)
(2.4774611 -0.029966467 8.4805064e-23)
(2.4868374 -0.027388938 -3.6289187e-22)
(2.4951715 -0.024765836 -8.2243369e-22)
(2.5024825 -0.021657596 -6.7828066e-22)
(2.5087374 -0.018276718 2.3380804e-21)
(2.5139622 -0.013764526 -1.526477e-21)
(2.518017 -0.0092888813 2.9638971e-21)
(2.5214237 -0.0026798766 2.884942e-21)
(1.5496564 -0.26891684 -5.6087696e-20)
(1.8887828 -0.48299013 3.2190696e-20)
(1.9657185 -0.39871211 9.6611118e-21)
(2.0838415 -0.28659507 -1.2689049e-20)
(2.1702342 -0.22168376 -2.3809402e-21)
(2.2427996 -0.18004551 -1.3347573e-21)
(2.3013007 -0.14475803 3.609196e-22)
(2.3441728 -0.11339868 -2.8977276e-22)
(2.3734328 -0.088153157 1.1204343e-22)
(2.3935899 -0.070200703 8.5521587e-23)
(2.4093255 -0.05878682 1.3699798e-21)
(2.42353 -0.051733243 3.1290789e-22)
(2.4371395 -0.046896155 -2.1595662e-21)
(2.4500249 -0.042984026 1.22199e-22)
(2.4618695 -0.039499842 -3.3993018e-22)
(2.4725659 -0.036326415 -2.2113727e-22)
(2.4822052 -0.033398036 4.1768435e-23)
(2.4909206 -0.030490626 -1.1505626e-21)
(2.4987772 -0.027453498 6.2696457e-22)
(2.5057347 -0.023843096 1.7639028e-21)
(2.5117182 -0.019916866 -1.4042997e-21)
(2.5167218 -0.014839662 -2.6115506e-21)
(2.5206324 -0.0098939766 -1.0638295e-22)
(2.5239327 -0.0028114701 -3.4169535e-21)
(1.6537724 -0.33705251 2.890352e-21)
(1.9456269 -0.53866469 -4.2805363e-20)
(1.9955235 -0.44333342 3.1159035e-20)
(2.098909 -0.32505906 -1.9706382e-20)
(2.1774597 -0.25577256 -7.8072821e-21)
(2.247885 -0.21034316 -6.9863778e-21)
(2.3063185 -0.17100071 -1.7518012e-21)
(2.3493723 -0.13441529 -1.7303179e-22)
(2.3775313 -0.10381982 1.5362498e-21)
(2.3952971 -0.081698361 1.8665776e-21)
(2.4083516 -0.067879414 2.0222243e-21)
(2.4205104 -0.059819448 3.2527028e-22)
(2.4330024 -0.054619763 -1.6002317e-21)
(2.4454932 -0.050438661 -1.7321366e-21)
(2.4573087 -0.046569852 1.3147866e-21)
(2.4680871 -0.042950095 -2.878775e-23)
(2.4778408 -0.039625338 -8.3993475e-22)
(2.4867442 -0.036518746 -3.4162329e-22)
(2.4949274 -0.033346063 1.2327459e-22)
(2.5023994 -0.029926779 1.0207922e-21)
(2.509054 -0.025833286 3.0633047e-21)
(2.5147807 -0.021383545 -1.5079578e-21)
(2.5195544 -0.015779478 -1.7399422e-21)
(2.5233001 -0.010408345 6.1067962e-22)
(2.5264678 -0.0029184921 -6.5781333e-21)
(1.7519729 -0.39454536 -3.7436126e-21)
(2.0024283 -0.58225838 -7.3739855e-21)
(2.0280401 -0.47905749 1.4751251e-20)
(2.1161133 -0.3578526 2.4044505e-20)
(2.1862393 -0.28664974 -2.5729309e-20)
(2.2546185 -0.23899593 -5.5285081e-21)
(2.3133465 -0.19660327 -3.4804463e-21)
(2.3570909 -0.15513371 -2.2185122e-21)
(2.3843573 -0.1188451 -1.3175587e-21)
(2.3993881 -0.092186411 -6.1359127e-22)
(2.4091033 -0.075779116 -6.1452369e-22)
(2.4185606 -0.066894867 -9.1360012e-22)
(2.4295115 -0.061741541 -3.7858683e-22)
(2.441445 -0.057693442 9.5918698e-22)
(2.4532149 -0.053696761 9.3054274e-22)
(2.4640705 -0.049724043 8.3461013e-22)
(2.4738643 -0.046016057 4.1455901e-22)
(2.4827973 -0.042638803 4.0174897e-22)
(2.4911062 -0.039425256 -1.1977769e-21)
(2.4988786 -0.036015241 9.1393548e-22)
(2.5060452 -0.03221598 8.7757414e-23)
(2.5124328 -0.027640755 -5.454655e-22)
(2.5179063 -0.022681729 3.4969476e-21)
(2.5224347 -0.016586422 1.9648899e-21)
(2.5259934 -0.0108339 -2.5436325e-21)
(2.5290038 -0.0030019302 1.0375085e-21)
(1.8493053 -0.44286845 8.3448799e-22)
(2.0629188 -0.61554417 -4.1898435e-20)
(2.0618683 -0.50704701 2.3002445e-20)
(2.1341304 -0.38515619 1.1310244e-20)
(2.1957029 -0.31422075 -3.7932139e-20)
(2.2622978 -0.26592252 -1.2892339e-20)
(2.3218318 -0.22154204 -1.0054221e-20)
(2.3670356 -0.17557404 7.960921e-22)
(2.3938262 -0.13324568 1.9200009e-21)
(2.405926 -0.10132383 -6.2256679e-22)
(2.4115338 -0.082106 4.6277837e-23)
(2.4175419 -0.072616861 1.5644635e-21)
(2.4264713 -0.067959053 3.7687822e-22)
(2.4376864 -0.064544875 -7.0831847e-22)
(2.4494633 -0.060773483 3.0036407e-22)
(2.4604936 -0.056594757 5.9728165e-22)
(2.4703492 -0.052496112 -5.8751677e-22)
(2.4792173 -0.04880529 -1.3237307e-22)
(2.4874641 -0.045470867 5.2526695e-23)
(2.4953252 -0.042188782 1.2963363e-22)
(2.5027992 -0.038534973 -1.9175989e-22)
(2.509723 -0.034335017 4.9064544e-22)
(2.5158637 -0.0292689 -3.8045994e-21)
(2.5210764 -0.023812388 7.5490054e-22)
(2.5253393 -0.017261949 1.9241095e-21)
(2.5286879 -0.01117268 -7.5636381e-21)
(2.5315183 -0.0030628984 4.1532113e-21)
(1.9516352 -0.48273849 1.2875873e-20)
(2.1259721 -0.6400324 5.9126957e-20)
(2.0951214 -0.52746343 -4.2695011e-20)
(2.1517475 -0.40726265 -3.8098115e-20)
(2.2051441 -0.3385615 4.349528e-20)
(2.2703032 -0.29115147 3.4856088e-21)
(2.3312447 -0.24587074 1.5649931e-20)
(2.3788791 -0.19586215 -1.4627261e-21)
(2.4058725 -0.14702195 -6.1323292e-21)
(2.4149333 -0.10914088 -4.3768823e-23)
(2.4157458 -0.086483353 -9.295232e-22)
(2.4173564 -0.07646625 1.1209023e-21)
(2.4236404 -0.072941519 -1.4110368e-22)
(2.4339519 -0.070808214 -4.9922368e-22)
(2.445852 -0.067724836 6.0007348e-22)
(2.4572659 -0.063551116 -2.6195863e-22)
(2.4673213 -0.059065076 -1.9663797e-21)
(2.4761156 -0.054958409 -4.5091157e-22)
(2.4841547 -0.051427607 7.3964362e-22)
(2.4918791 -0.048208807 2.9118201e-22)
(2.4994425 -0.044857485 1.7271787e-22)
(2.5067162 -0.040922682 7.0438206e-22)
(2.5134404 -0.03628563 -1.5948954e-21)
(2.5193379 -0.030715355 -1.1738092e-21)
(2.5242729 -0.02477475 5.1343611e-22)
(2.5282461 -0.017807688 -2.6010431e-21)
(2.5313616 -0.011427357 2.7259191e-21)
(2.5339919 -0.0031026577 1.6437313e-20)
(2.0560452 -0.51445715 -2.4281521e-21)
(2.1866747 -0.656515 5.6879073e-20)
(2.1262916 -0.54044371 -1.812766e-20)
(2.1680766 -0.42462176 -2.7906705e-20)
(2.2140293 -0.35986968 -1.7831935e-20)
(2.2781001 -0.31477409 1.6121688e-20)
(2.3410935 -0.26970393 1.2923901e-20)
(2.3923046 -0.2161828 1.2325107e-21)
(2.4204212 -0.16031287 -1.7366266e-21)
(2.4264095 -0.11547766 1.2939379e-21)
(2.4217291 -0.088814403 -5.4304506e-22)
(2.4178465 -0.078472418 -1.0211071e-21)
(2.4207948 -0.076364677 -1.8450541e-21)
(2.4299309 -0.076271733 -1.0090836e-21)
(2.4421077 -0.074503586 -2.8222861e-23)
(2.4542291 -0.070632687 -7.8182069e-22)
(2.4647573 -0.065779553 -1.3000913e-21)
(2.4735799 -0.061118855 3.0341051e-22)
(2.4813261 -0.057224101 6.2257997e-22)
(2.4887015 -0.053994406 3.6917757e-22)
(2.4960955 -0.050920961 1.0514068e-21)
(2.5035058 -0.04745776 -7.5622353e-22)
(2.5106561 -0.043180038 -4.3004352e-22)
(2.5172025 -0.038061263 -5.9676108e-23)
(2.5228453 -0.031974918 7.9471553e-22)
(2.5274775 -0.025568049 2.4290689e-21)
(2.5311346 -0.018226224 -5.0018601e-22)
(2.533995 -0.011601475 5.7253924e-21)
(2.5364081 -0.0031225812 -8.7647791e-22)
(2.1561217 -0.53757957 -2.0930731e-20)
(2.2410888 -0.66524241 -7.1862678e-20)
(2.1548553 -0.54665359 6.5578244e-20)
(2.1825415 -0.43789511 1.670039e-20)
(2.2219494 -0.37842427 -1.9542129e-20)
(2.2852569 -0.33691506 1.525814e-20)
(2.3509367 -0.29315862 -1.083845e-20)
(2.4070089 -0.23677752 1.3996526e-20)
(2.4373988 -0.17330977 3.1044205e-21)
(2.4404584 -0.12029984 -5.6402409e-22)
(2.4293979 -0.088822383 -4.9664407e-22)
(2.4188987 -0.077702645 -4.943976e-22)
(2.4175076 -0.07804517 -6.3177304e-22)
(2.425248 -0.080841604 3.5250434e-22)
(2.4379019 -0.08108479 -1.5401741e-22)
(2.4511622 -0.077925821 -4.8141361e-21)
(2.4625839 -0.072762846 -2.8221885e-21)
(2.4716735 -0.067372687 1.4438073e-21)
(2.479128 -0.062868229 4.22967e-22)
(2.4859662 -0.059440421 -7.8307435e-22)
(2.4929131 -0.056608621 -8.3617723e-23)
(2.500182 -0.05365285 1.4501364e-21)
(2.5075654 -0.049995838 4.6125655e-22)
(2.5146427 -0.045296681 -2.4689399e-21)
(2.5210104 -0.039650537 4.5808354e-21)
(2.5263734 -0.033041891 8.7850779e-22)
(2.5306721 -0.026192747 -1.16178e-21)
(2.5339862 -0.018521495 -1.7491588e-22)
(2.536571 -0.01169945 5.8901021e-21)
(2.5387531 -0.0031241071 -1.887262e-20)
(2.2563828 -0.55370482 4.3797237e-20)
(2.2872136 -0.66681356 3.5441068e-20)
(2.181292 -0.54717058 -3.6220366e-21)
(2.19482 -0.44760485 9.959502e-21)
(2.22863 -0.39446138 6.8916343e-20)
(2.2914335 -0.35769463 1.7621993e-20)
(2.3603906 -0.31639126 3.3107075e-22)
(2.4227041 -0.25788086 2.0464371e-20)
(2.4567458 -0.18624955 1.0912374e-20)
(2.4571748 -0.12367167 1.1454212e-21)
(2.4388708 -0.086207848 2.2522512e-21)
(2.420444 -0.074114321 7.9476958e-22)
(2.4135305 -0.077397372 4.7489894e-22)
(2.4194958 -0.084148113 9.1875924e-22)
(2.4328295 -0.0874873 0)
(2.4477856 -0.085562619 1.8592523e-21)
(2.4606786 -0.080203314 2.2200582e-21)
(2.4704328 -0.073883462 3.9097671e-22)
(2.4777119 -0.068433364 -3.9721891e-22)
(2.4838715 -0.064511832 -2.0303375e-21)
(2.4900766 -0.061766482 -2.3365706e-22)
(2.4968775 -0.059351778 9.8702242e-22)
(2.5042178 -0.05642443 -1.0484115e-21)
(2.5116699 -0.052460391 -2.9469695e-22)
(2.5186939 -0.047254034 1.6996582e-21)
(2.524861 -0.04104027 -5.1580355e-22)
(2.5299079 -0.033911829 3.7591793e-21)
(2.5338386 -0.026651234 -1.3834477e-21)
(2.5367838 -0.018698857 -3.7014926e-21)
(2.5390753 -0.011726407 -2.4109451e-21)
(2.5410156 -0.0031087095 2.9519654e-22)
(2.3603241 -0.5642405 -9.1930983e-22)
(2.3304196 -0.66371978 2.4447829e-20)
(2.2054216 -0.5427723 -5.9800546e-20)
(2.2051067 -0.45429009 2.7070398e-20)
(2.2337401 -0.40842321 -5.375243e-20)
(2.2964335 -0.37723376 -4.3432821e-20)
(2.3691197 -0.33947951 -2.5863725e-20)
(2.4391043 -0.27979407 -2.6655777e-20)
(2.4784089 -0.19939327 3.986719e-20)
(2.4766502 -0.12563951 -4.669379e-22)
(2.4502814 -0.080885241 6.6219428e-21)
(2.4223909 -0.067437959 -3.9055662e-22)
(2.4087284 -0.074312018 -1.2423353e-21)
(2.4122734 -0.086332555 5.7419662e-22)
(2.4265291 -0.093657196 -1.7779847e-21)
(2.443771 -0.093697133 5.6325305e-22)
(2.4588699 -0.088346431 4.2204329e-21)
(2.4698661 -0.080892708 2.0384774e-21)
(2.4772299 -0.074072685 3.6961641e-23)
(2.4826415 -0.069230422 3.5227061e-22)
(2.4878091 -0.066295328 -8.6911e-23)
(2.4937597 -0.064345605 -1.6753961e-21)
(2.5007087 -0.062273216 2.8662956e-22)
(2.5082849 -0.059229915 -9.329639e-23)
(2.5158614 -0.054826207 -6.0317411e-22)
(2.5228206 -0.049029016 1.9095964e-21)
(2.5287465 -0.042217917 -1.4258545e-21)
(2.5334329 -0.034582649 -1.0962986e-21)
(2.5369601 -0.026948043 -1.3316462e-21)
(2.5395123 -0.018764909 3.5701479e-22)
(2.5414957 -0.01168794 -6.0128782e-21)
(2.5431868 -0.003077881 4.5627743e-21)
(2.4603566 -0.56725949 -1.4601929e-19)
(2.3700332 -0.65361439 -1.1020884e-20)
(2.2305818 -0.53551018 -5.3031486e-20)
(2.2141536 -0.45802374 8.4901881e-20)
(2.23626 -0.42068694 7.3482214e-21)
(2.3002482 -0.39583293 -1.6804198e-20)
(2.376965 -0.36262189 3.5470528e-20)
(2.4559749 -0.30263531 4.084766e-20)
(2.5023108 -0.21305806 -2.9507745e-20)
(2.4989705 -0.12632276 -8.1385077e-21)
(2.4637182 -0.072708933 -2.5330807e-22)
(2.4247028 -0.057321954 1.1109946e-21)
(2.4027493 -0.068422499 -5.163777e-22)
(2.4031728 -0.087043811 5.8876056e-22)
(2.4185437 -0.099720916 9.6811421e-22)
(2.4387668 -0.10252555 2.3933721e-22)
(2.4569461 -0.097482015 -1.4797048e-21)
(2.4699504 -0.088713126 3.1713035e-21)
(2.4778325 -0.080022342 2.5381721e-21)
(2.4825283 -0.073689867 2.2858807e-21)
(2.4863788 -0.070136703 -2.3911245e-22)
(2.4910479 -0.068461234 -4.0681165e-22)
(2.4971704 -0.06728098 1.5259048e-21)
(2.5045336 -0.065384496 -1.8853791e-21)
(2.5124602 -0.062040486 4.9673745e-22)
(2.5201723 -0.057058596 1.7230202e-21)
(2.5270256 -0.050597431 9.4379244e-22)
(2.5326548 -0.043173329 -4.3806507e-22)
(2.5369316 -0.035055133 -8.3152138e-21)
(2.5400202 -0.027089719 -6.6026379e-21)
(2.5421587 -0.0187272 1.6882875e-21)
(2.5438224 -0.011589879 2.5615519e-21)
(2.5452601 -0.0030331228 -1.1628389e-24)
(2.5565925 -0.56241498 2.7043258e-21)
(2.4079249 -0.63529094 -1.0895361e-21)
(2.2547163 -0.52422757 5.5785295e-20)
(2.222243 -0.46042552 -3.4759974e-20)
(2.2358821 -0.43132548 5.5649804e-20)
(2.3027128 -0.41336852 9.0648175e-21)
(2.3841227 -0.38589779 2.9822855e-20)
(2.4730644 -0.32687107 -1.2191608e-20)
(2.5283437 -0.22739123 -6.030532e-20)
(2.5241932 -0.12581054 -8.1799137e-23)
(2.4792498 -0.061644618 5.2873566e-22)
(2.4273347 -0.04348467 1.489247e-21)
(2.3952882 -0.059395821 1.8790201e-21)
(2.3917693 -0.086104292 2.239643e-21)
(2.4083737 -0.10560658 4.4770388e-21)
(2.4323788 -0.11220179 3.1967568e-21)
(2.4546478 -0.1079312 -7.4674062e-23)
(2.4706286 -0.097719543 -1.1421734e-21)
(2.4796641 -0.086598983 -2.1414985e-21)
(2.4838099 -0.078060723 -5.1502632e-23)
(2.4861025 -0.073287133 -6.8640996e-24)
(2.4890179 -0.071546113 0)
(2.4937904 -0.071202762 -1.6113608e-22)
(2.5004951 -0.070620503 1.4449264e-22)
(2.5084776 -0.068659801 -7.740992e-22)
(2.5168077 -0.064809317 -1.0391467e-21)
(2.5246224 -0.059118024 -2.0907256e-22)
(2.531304 -0.051936705 2.8332854e-21)
(2.5365702 -0.043899788 -5.6306915e-21)
(2.5403865 -0.035332945 3.048022e-21)
(2.5430042 -0.02708446 -1.8238757e-21)
(2.5447119 -0.018593888 1.5409559e-22)
(2.546048 -0.011438108 -1.3025838e-23)
(2.5472308 -0.0029759257 0)
(2.6460788 -0.54934901 2.0035704e-19)
(2.4362341 -0.60952992 -9.6923863e-21)
(2.2715938 -0.50855007 2.9810744e-20)
(2.229718 -0.46045562 -6.301031e-20)
(2.2334483 -0.44097154 1.7764377e-22)
(2.3043829 -0.43063404 -1.8017349e-22)
(2.3904582 -0.40894877 -5.719226e-20)
(2.4900085 -0.35133145 -8.1992162e-20)
(2.5550169 -0.24279546 1.6130979e-20)
(2.5519697 -0.12419042 -9.9396754e-21)
(2.4969332 -0.047500985 -6.4506877e-22)
(2.4302307 -0.025731698 -3.0994496e-21)
(2.3860841 -0.046926077 -2.789544e-21)
(2.3776364 -0.083393974 -2.2753716e-21)
(2.3956204 -0.1113821 -1.5465676e-21)
(2.4242036 -0.12293566 -1.3737764e-21)
(2.4516879 -0.12002125 -3.5904267e-22)
(2.4718053 -0.10833056 -1.2537893e-21)
(2.4828555 -0.094194195 -5.402188e-21)
(2.4867864 -0.082591138 -4.9943092e-21)
(2.4873456 -0.075803158 -4.0321025e-21)
(2.488006 -0.073480627 0)
(2.4908155 -0.073793458 -1.2707445e-21)
(2.4963015 -0.074632685 3.8029005e-23)
(2.5039274 -0.074352791 1.5138418e-21)
(2.5126518 -0.072041457 7.8961613e-22)
(2.5213743 -0.067477912 -2.9367075e-23)
(2.5292189 -0.060964344 -6.1482419e-22)
(2.5356431 -0.053027809 -3.8387419e-21)
(2.5404744 -0.044394397 2.4496863e-21)
(2.5437803 -0.035422335 3.8468711e-21)
(2.5458987 -0.026941696 6.540145e-21)
(2.5471629 -0.018373445 -8.862356e-21)
(2.5481668 -0.011238419 -3.0087689e-21)
(2.5490957 -0.0029077494 -3.5451928e-21)
(2.7269063 -0.52748947 -1.3809575e-19)
(2.4594563 -0.57563165 5.0046421e-22)
(2.2856288 -0.49054165 -2.0922379e-20)
(2.2349826 -0.45819403 -3.8442203e-20)
(2.232313 -0.44958519 -1.5889143e-22)
(2.3010945 -0.44816838 3.2085852e-20)
(2.3968318 -0.43167146 -3.4883508e-20)
(2.5052648 -0.37753061 -5.5522195e-21)
(2.5790077 -0.25761934 -2.928125e-20)
(2.5788869 -0.12146004 1.5514934e-21)
(2.5158818 -0.030394771 -6.8459423e-21)
(2.4333457 -0.0036401958 -9.6169124e-22)
(2.3748697 -0.030770941 -2.8246852e-21)
(2.3603775 -0.078762918 3.3622985e-21)
(2.3798809 -0.11708818 -1.6287175e-21)
(2.4138681 -0.13490498 -4.710537e-21)
(2.4477605 -0.13407351 -2.1717756e-21)
(2.4733414 -0.12099859 3.7900232e-21)
(2.4875172 -0.10326661 1.6210122e-21)
(2.4917742 -0.087604785 -3.1796925e-21)
(2.4905191 -0.077802754 -1.1925501e-21)
(2.4884092 -0.074182138 2.2492201e-23)
(2.488556 -0.074818532 -9.4641588e-22)
(2.4921406 -0.077097404 1.3954762e-22)
(2.4988695 -0.078771709 6.4305564e-22)
(2.5076463 -0.078412983 1.3475438e-21)
(2.5171439 -0.075448641 9.0838676e-25)
(2.526187 -0.069982554 6.4332442e-22)
(2.533956 -0.062560151 1.104143e-21)
(2.5400244 -0.053856371 -4.4031559e-21)
(2.5443471 -0.044658026 6.7301375e-21)
(2.5470966 -0.035331705 -4.4370547e-21)
(2.5486921 -0.026671683 2.90558e-21)
(2.5495047 -0.018074412 4.4812598e-22)
(2.5501752 -0.010996417 -3.4074752e-21)
(2.5508534 -0.0028299941 -7.60697e-21)
(2.7987724 -0.49693408 -1.5248517e-19)
(2.4756603 -0.53580988 -1.6905959e-22)
(2.2963865 -0.46792855 -5.3762549e-22)
(2.234285 -0.45380399 4.4187528e-20)
(2.2321275 -0.45674559 1.7580271e-20)
(2.2947114 -0.46638579 4.2089086e-22)
(2.396872 -0.45596295 3.3254234e-20)
(2.5184837 -0.40082113 2.7533335e-22)
(2.5966216 -0.27334786 7.4334314e-21)
(2.5991997 -0.11561294 1.4063961e-20)
(2.5299465 -0.0096226351 2.7782421e-20)
(2.4347172 0.022604069 -4.0043511e-22)
(2.3613857 -0.010536352 2.8953365e-21)
(2.3395963 -0.072159911 -1.3599271e-21)
(2.360797 -0.12276314 1.2179529e-21)
(2.4010272 -0.14825728 3.317133e-21)
(2.4425404 -0.15039 1.2637853e-21)
(2.4750567 -0.13616976 -2.6504995e-21)
(2.4937247 -0.11432663 -9.3718932e-22)
(2.4990988 -0.093500569 6.299059e-21)
(2.4960764 -0.079463299 7.1682479e-21)
(2.4906826 -0.073605264 1.2012505e-21)
(2.4873842 -0.07405749 -4.4081144e-23)
(2.4882593 -0.077682704 1.827941e-21)
(2.4934116 -0.081536145 -1.5242875e-21)
(2.501769 -0.083554359 -9.797414e-22)
(2.5117991 -0.082694931 -7.1557174e-22)
(2.5220125 -0.078787148 4.1050255e-22)
(2.5312529 -0.072259921 -2.987042e-22)
(2.5388168 -0.063873142 9.6892428e-22)
(2.5444244 -0.054413138 1.2758626e-21)
(2.5481672 -0.044695001 1.3511662e-22)
(2.5503198 -0.035071152 4.5545927e-21)
(2.5513747 -0.026285156 2.6766462e-21)
(2.5517318 -0.017705219 8.3249726e-21)
(2.552071 -0.010717444 -4.6944018e-22)
(2.5525037 -0.00274398 -4.8935565e-24)
(2.8570599 -0.45719943 1.2648135e-19)
(2.4801347 -0.48839461 -9.7771182e-21)
(2.3006051 -0.44053636 -6.2755609e-22)
(2.2279189 -0.446308 3.4032713e-20)
(2.2299242 -0.46122993 -1.6782092e-20)
(2.2873259 -0.48423676 -6.5119e-20)
(2.3937081 -0.4819959 1.5564339e-20)
(2.5229438 -0.42737605 2.9543122e-20)
(2.6088266 -0.28387258 2.4850521e-20)
(2.6123467 -0.10834313 -9.5912605e-22)
(2.5310393 0.016934007 6.3414265e-20)
(2.4236568 0.053747068 -3.6581355e-21)
(2.3437764 0.013690666 3.0185698e-21)
(2.3149144 -0.063394203 -2.0140446e-22)
(2.3380409 -0.12851631 -1.5265497e-21)
(2.3854016 -0.16312398 3.1137815e-22)
(2.4357131 -0.16919387 5.5312086e-21)
(2.4767187 -0.15428432 -3.1505503e-21)
(2.5015132 -0.12792504 -6.0251204e-22)
(2.5090806 -0.10074063 5.8936833e-21)
(2.5045073 -0.081026167 4.2568405e-21)
(2.4953355 -0.07173843 -3.9655005e-21)
(2.4877297 -0.071303115 1.9248428e-21)
(2.4849599 -0.076052723 -6.6653814e-22)
(2.4877119 -0.082243579 0)
(2.4950362 -0.087053275 -5.8502041e-22)
(2.5052335 -0.088846432 4.337398e-24)
(2.5164925 -0.087065924 2.0656811e-21)
(2.5272859 -0.081958462 1.0309741e-21)
(2.5365603 -0.074251458 -1.2927254e-21)
(2.5437753 -0.064877545 7.1928894e-22)
(2.5488166 -0.054694018 4.3638521e-21)
(2.5519137 -0.044512678 -3.0405065e-21)
(2.5534358 -0.034652047 2.718245e-21)
(2.5539382 -0.025793069 -3.5897435e-21)
(2.5538406 -0.017274064 3.6686669e-22)
(2.5538533 -0.010406534 2.1514237e-20)
(2.5540474 -0.0026509275 8.5425912e-21)
(2.8937037 -0.40792451 2.5491788e-20)
(2.4670362 -0.43350689 1.1495856e-20)
(2.2914153 -0.40943005 1.9727881e-20)
(2.2136986 -0.43710769 -7.8191026e-20)
(2.2221391 -0.46677038 -5.4369707e-20)
(2.2808292 -0.50169244 -8.975991e-22)
(2.3881356 -0.50860943 9.3948264e-22)
(2.5226755 -0.45825277 -8.1262549e-24)
(2.6143941 -0.30191681 -5.573033e-20)
(2.6213556 -0.093424348 2.9046215e-20)
(2.5221507 0.048424603 -2.5584081e-20)
(2.3914847 0.089958257 1.0026667e-20)
(2.3131424 0.042042936 -1.4878135e-21)