/*--------------------------------*- C++ -*----------------------------------*\
| =========                 |                                                 |
| \\      /  F ield         | OpenFOAM: The Open Source CFD Toolbox           |
|  \\    /   O peration     | Version:  v2012                                 |
|   \\  /    A nd           | Website:  www.openfoam.com                      |
|    \\/     M anipulation  |                                                 |
\*---------------------------------------------------------------------------*/
FoamFile
{
    version     2.0;
    format      ascii;
    class       volVectorField;
    location    "63.7469491763794949";
    object      cellDisplacement;
}
// * * * * * * * * * * * * * * * * * * * * * * * * * * * * * * * * * * * * * //

dimensions      [0 1 0 0 0 0 0];


internalField   nonuniform List<vector> 
9200
(
(-0.016892798 0 0)
(-0.01695455 0 0)
(-0.049015208 0 0)
(-0.01705493 0 0)
(-0.04918295 0 0)
(-0.078924148 0 0)
(-0.017170621 0 0)
(-0.049452962 0 0)
(-0.079183323 0 0)
(-0.10675889 0 0)
(-0.017286099 0 0)
(-0.049752107 0 0)
(-0.079586932 0 0)
(-0.10708987 0 0)
(-0.13263388 0 0)
(-0.01739827 0 0)
(-0.050061322 0 0)
(-0.080053314 0 0)
(-0.10761385 0 0)
(-0.13302802 0 0)
(-0.15669688 0 0)
(-0.017506559 0 0)
(-0.050368423 0 0)
(-0.080546111 0 0)
(-0.1082549 0 0)
(-0.13369158 0 0)
(-0.15716383 0 0)
(-0.17905554 0 0)
(-0.017604985 0 0)
(-0.050657575 0 0)
(-0.081024882 0 0)
(-0.10891028 0 0)
(-0.13447582 0 0)
(-0.15793259 0 0)
(-0.17958227 0 0)
(-0.19983527 0 0)
(-0.017695589 0 0)
(-0.050927254 0 0)
(-0.081477342 0 0)
(-0.1095553 0 0)
(-0.13530854 0 0)
(-0.15887946 0 0)
(-0.18047762 0 0)
(-0.20043327 0 0)
(-0.2191278 0 0)
(-0.017774195 0 0)
(-0.051167286 0 0)
(-0.081894562 0 0)
(-0.11016669 0 0)
(-0.13613088 0 0)
(-0.15989931 0 0)
(-0.18158921 0 0)
(-0.20144254 0 0)
(-0.2197926 0 0)
(-0.23704838 0 0)
(-0.017843602 0 0)
(-0.051381484 0 0)
(-0.082267082 0 0)
(-0.11072466 0 0)
(-0.13690603 0 0)
(-0.16090232 0 0)
(-0.18279234 0 0)
(-0.20271992 0 0)
(-0.22093452 0 0)
(-0.23779036 0 0)
(-0.25367127 0 0)
(-0.017901656 0 0)
(-0.051563618 0 0)
(-0.082594426 0 0)
(-0.11122662 0 0)
(-0.13761359 0 0)
(-0.16184724 0 0)
(-0.18399089 0 0)
(-0.20411527 0 0)
(-0.22237337 0 0)
(-0.23905293 0 0)
(-0.25448576 0 0)
(-0.26909653 0 0)
(-0.017951058 0 0)
(-0.051720445 0 0)
(-0.082874148 0 0)
(-0.1116608 0 0)
(-0.13824853 0 0)
(-0.16271786 0 0)
(-0.18513257 0 0)
(-0.20553995 0 0)
(-0.22398613 0 0)
(-0.24067129 0 0)
(-0.25589293 0 0)
(-0.2699967 0 0)
(-0.28338743 0 0)
(-0.017990977 0 0)
(-0.051848207 0 0)
(-0.083108587 0 0)
(-0.11203385 0 0)
(-0.13880053 0 0)
(-0.16349154 0 0)
(-0.18617205 0 0)
(-0.20687065 0 0)
(-0.22559455 0 0)
(-0.24245967 0 0)
(-0.25767992 0 0)
(-0.27154064 0 0)
(-0.28437214 0 0)
(-0.29663645 0 0)
(-0.018023466 0 0)
(-0.051953656 0 0)
(-0.083300304 0 0)
(-0.11234059 0 0)
(-0.13927324 0 0)
(-0.16417408 0 0)
(-0.18710212 0 0)
(-0.20810104 0 0)
(-0.22716948 0 0)
(-0.24433093 0 0)
(-0.25970233 0 0)
(-0.27352488 0 0)
(-0.28607546 0 0)
(-0.29771511 0 0)
(-0.30889127 0 0)
(-0.018048778 0 0)
(-0.05203577 0 0)
(-0.083453515 0 0)
(-0.11259301 0 0)
(-0.13966626 0 0)
(-0.16475315 0 0)
(-0.18791883 0 0)
(-0.20920441 0 0)
(-0.22860724 0 0)
(-0.24611252 0 0)
(-0.26176759 0 0)
(-0.27574474 0 0)
(-0.28825267 0 0)
(-0.29957235 0 0)
(-0.31006148 0 0)
(-0.32023189 0 0)
(-0.01806846 0 0)
(-0.052100404 0 0)
(-0.083573053 0 0)
(-0.11278875 0 0)
(-0.13998665 0 0)
(-0.16524409 0 0)
(-0.18862048 0 0)
(-0.21017191 0 0)
(-0.22990275 0 0)
(-0.24778391 0 0)
(-0.26381615 0 0)
(-0.27808174 0 0)
(-0.29072257 0 0)
(-0.30196691 0 0)
(-0.31209384 0 0)
(-0.32150333 0 0)
(-0.33069697 0 0)
(-0.018083159 0 0)
(-0.05214773 0 0)
(-0.083662418 0 0)
(-0.1129415 0 0)
(-0.14024113 0 0)
(-0.1656412 0 0)
(-0.18921216 0 0)
(-0.21101214 0 0)
(-0.23104938 0 0)
(-0.24929984 0 0)
(-0.26574255 0 0)
(-0.28037643 0 0)
(-0.29328768 0 0)
(-0.30466588 0 0)
(-0.31470514 0 0)
(-0.32370576 0 0)
(-0.33206896 0 0)
(-0.34036097 0 0)
(-0.018093986 0 0)
(-0.052181931 0 0)
(-0.083726741 0 0)
(-0.11305061 0 0)
(-0.14043611 0 0)
(-0.16596389 0 0)
(-0.18969992 0 0)
(-0.21171989 0 0)
(-0.23204375 0 0)
(-0.25064697 0 0)
(-0.2674977 0 0)
(-0.28256385 0 0)
(-0.29586989 0 0)
(-0.30752838 0 0)
(-0.31768158 0 0)
(-0.32655621 0 0)
(-0.33445858 0 0)
(-0.3418395 0 0)
(-0.34925333 0 0)
(-0.018101824 0 0)
(-0.052204569 0 0)
(-0.083769748 0 0)
(-0.11312983 0 0)
(-0.14058184 0 0)
(-0.16620977 0 0)
(-0.19009233 0 0)
(-0.21231192 0 0)
(-0.23289554 0 0)
(-0.25182281 0 0)
(-0.26906642 0 0)
(-0.28458275 0 0)
(-0.29834064 0 0)
(-0.31037524 0 0)
(-0.32080218 0 0)
(-0.32979341 0 0)
(-0.33754785 0 0)
(-0.34441111 0 0)
(-0.35083598 0 0)
(-0.35744028 0 0)
(-0.01810742 0 0)
(-0.052218593 0 0)
(-0.083794883 0 0)
(-0.1131778 0 0)
(-0.14068317 0 0)
(-0.16639896 0 0)
(-0.19040057 0 0)
(-0.21278896 0 0)
(-0.23360661 0 0)
(-0.252835 0 0)
(-0.27044798 0 0)
(-0.2864003 0 0)
(-0.30064413 0 0)
(-0.3131495 0 0)
(-0.32397102 0 0)
(-0.33323743 0 0)
(-0.34108347 0 0)
(-0.34775559 0 0)
(-0.35360399 0 0)
(-0.35913219 0 0)
(-0.36494646 0 0)
(-0.018111595 0 0)
(-0.052225801 0 0)
(-0.083806064 0 0)
(-0.11320742 0 0)
(-0.14075185 0 0)
(-0.16653092 0 0)
(-0.19063341 0 0)
(-0.21316992 0 0)
(-0.23419448 0 0)
(-0.25369038 0 0)
(-0.27164228 0 0)
(-0.28801031 0 0)
(-0.30272985 0 0)
(-0.31574463 0 0)
(-0.32704956 0 0)
(-0.33670387 0 0)
(-0.34482262 0 0)
(-0.35157884 0 0)
(-0.3572028 0 0)
(-0.36209027 0 0)
(-0.36674582 0 0)
(-0.37183433 0 0)
(-0.01811473 0 0)
(-0.052228519 0 0)
(-0.08380673 0 0)
(-0.11321674 0 0)
(-0.1407902 0 0)
(-0.16662329 0 0)
(-0.19080374 0 0)
(-0.21345998 0 0)
(-0.23466432 0 0)
(-0.25440178 0 0)
(-0.27266345 0 0)
(-0.28941153 0 0)
(-0.3045858 0 0)
(-0.31811998 0 0)
(-0.3299619 0 0)
(-0.34010985 0 0)
(-0.34863814 0 0)
(-0.35566727 0 0)
(-0.36134433 0 0)
(-0.365956 0 0)
(-0.36990383 0 0)
(-0.37374303 0 0)
(-0.37812368 0 0)
(-0.018117499 0 0)
(-0.052228007 0 0)
(-0.083799439 0 0)
(-0.11321605 0 0)
(-0.1408089 0 0)
(-0.16667666 0 0)
(-0.19091994 0 0)
(-0.21367763 0 0)
(-0.23503688 0 0)
(-0.25498255 0 0)
(-0.2735179 0 0)
(-0.29061949 0 0)
(-0.30621972 0 0)
(-0.32024942 0 0)
(-0.33264681 0 0)
(-0.34335488 0 0)
(-0.35238548 0 0)
(-0.35981311 0 0)
(-0.36575675 0 0)
(-0.37040536 0 0)
(-0.3740339 0 0)
(-0.37709339 0 0)
(-0.38013832 0 0)
(-0.38387104 0 0)
(-0.018119973 0 0)
(-0.052226262 0 0)
(-0.083786929 0 0)
(-0.11320376 0 0)
(-0.14080913 0 0)
(-0.16670547 0 0)
(-0.19099434 0 0)
(-0.21382928 0 0)
(-0.23531853 0 0)
(-0.25544636 0 0)
(-0.27422604 0 0)
(-0.29164103 0 0)
(-0.30763196 0 0)
(-0.3221336 0 0)
(-0.33507088 0 0)
(-0.34636636 0 0)
(-0.35597888 0 0)
(-0.36392465 0 0)
(-0.37028443 0 0)
(-0.37518742 0 0)
(-0.37881276 0 0)
(-0.38149508 0 0)
(-0.38368802 0 0)
(-0.38599242 0 0)
(-0.38909375 0 0)
(-0.01812258 0 0)
(-0.052223642 0 0)
(-0.083771125 0 0)
(-0.11318816 0 0)
(-0.14080031 0 0)
(-0.16671073 0 0)
(-0.1910334 0 0)
(-0.21393114 0 0)
(-0.2355297 0 0)
(-0.25581013 0 0)
(-0.27479758 0 0)
(-0.29249634 0 0)
(-0.30884449 0 0)
(-0.32377559 0 0)
(-0.33722479 0 0)
(-0.34910724 0 0)
(-0.35933818 0 0)
(-0.36787993 0 0)
(-0.37476842 0 0)
(-0.38007665 0 0)
(-0.38394278 0 0)
(-0.38659367 0 0)
(-0.38835656 0 0)
(-0.38973235 0 0)
(-0.39131868 0 0)
(-0.39384494 0 0)
(-0.018125198 0 0)
(-0.052221876 0 0)
(-0.0837547 0 0)
(-0.11316787 0 0)
(-0.14078252 0 0)
(-0.16670301 0 0)
(-0.1910476 0 0)
(-0.2139895 0 0)
(-0.23567655 0 0)
(-0.25608652 0 0)
(-0.27525553 0 0)
(-0.29319826 0 0)
(-0.30986277 0 0)
(-0.32519309 0 0)
(-0.33912032 0 0)
(-0.35155962 0 0)
(-0.36242042 0 0)
(-0.37161164 0 0)
(-0.37911015 0 0)
(-0.38495513 0 0)
(-0.38923551 0 0)
(-0.39210561 0 0)
(-0.39378932 0 0)
(-0.39467084 0 0)
(-0.39525201 0 0)
(-0.39617177 0 0)
(-0.39813924 0 0)
(-0.018128064 0 0)
(-0.05222059 0 0)
(-0.083738645 0 0)
(-0.11314896 0 0)
(-0.14076288 0 0)
(-0.16668398 0 0)
(-0.19104218 0 0)
(-0.21401829 0 0)
(-0.23577712 0 0)
(-0.25629266 0 0)
(-0.27560956 0 0)
(-0.29376747 0 0)
(-0.31071537 0 0)
(-0.32639829 0 0)
(-0.34076258 0 0)
(-0.35372938 0 0)
(-0.36519442 0 0)
(-0.37504903 0 0)
(-0.38321914 0 0)
(-0.38969137 0 0)
(-0.39451649 0 0)
(-0.39778123 0 0)
(-0.3996619 0 0)
(-0.40042661 0 0)
(-0.40045369 0 0)
(-0.40028826 0 0)
(-0.40056385 0 0)
(-0.40202467 0 0)
(-0.018131135 0 0)
(-0.052221173 0 0)
(-0.083725326 0 0)
(-0.11313066 0 0)
(-0.1407416 0 0)
(-0.16666123 0 0)
(-0.19102502 0 0)
(-0.21402187 0 0)
(-0.23583657 0 0)
(-0.25643838 0 0)
(-0.27588179 0 0)
(-0.29421998 0 0)
(-0.31141031 0 0)
(-0.3274126 0 0)
(-0.34217602 0 0)
(-0.35562169 0 0)
(-0.36765624 0 0)
(-0.37816711 0 0)
(-0.38703745 0 0)
(-0.3942001 0 0)
(-0.39966597 0 0)
(-0.40348095 0 0)
(-0.40575505 0 0)
(-0.40668376 0 0)
(-0.40653959 0 0)
(-0.40575211 0 0)
(-0.40486447 0 0)
(-0.40454478 0 0)
(-0.40551445 0 0)
(-0.018134158 0 0)
(-0.052223565 0 0)
(-0.083715755 0 0)
(-0.11311758 0 0)
(-0.14072397 0 0)
(-0.16663636 0 0)
(-0.19100028 0 0)
(-0.21401215 0 0)
(-0.23586966 0 0)
(-0.25653932 0 0)
(-0.27608094 0 0)
(-0.29457374 0 0)
(-0.31197727 0 0)
(-0.3282542 0 0)
(-0.34337108 0 0)
(-0.35726202 0 0)
(-0.36982558 0 0)
(-0.38095091 0 0)
(-0.39052052 0 0)
(-0.398413 0 0)
(-0.40458261 0 0)
(-0.40904962 0 0)
(-0.41187568 0 0)
(-0.41317195 0 0)
(-0.41316106 0 0)
(-0.41215605 0 0)
(-0.41058189 0 0)
(-0.40901854 0 0)
(-0.40812635 0 0)
(-0.40865304 0 0)
(-0.018062082 0 0)
(-0.052227429 0 0)
(-0.083711316 0 0)
(-0.11310971 0 0)
(-0.14071033 0 0)
(-0.16661436 0 0)
(-0.19097412 0 0)
(-0.21399146 0 0)
(-0.23588037 0 0)
(-0.25660283 0 0)
(-0.27622595 0 0)
(-0.29484468 0 0)
(-0.31242428 0 0)
(-0.32894339 0 0)
(-0.34437702 0 0)
(-0.35866224 0 0)
(-0.37170861 0 0)
(-0.38341261 0 0)
(-0.39364388 0 0)
(-0.40226454 0 0)
(-0.40919076 0 0)
(-0.41438865 0 0)
(-0.41787852 0 0)
(-0.41972357 0 0)
(-0.42006913 0 0)
(-0.41915626 0 0)
(-0.41730552 0 0)
(-0.41498542 0 0)
(-0.4127718 0 0)
(-0.41135311 0 0)
(-0.41145188 0 0)
(-0.017976237 0 0)
(-0.052068343 0 0)
(-0.083712747 0 0)
(-0.11310914 0 0)
(-0.14070337 0 0)
(-0.16659704 0 0)
(-0.19094927 0 0)
(-0.21396892 0 0)
(-0.23587966 0 0)
(-0.25664141 0 0)
(-0.27632406 0 0)
(-0.29504745 0 0)
(-0.31277912 0 0)
(-0.32950149 0 0)
(-0.34520684 0 0)
(-0.35985022 0 0)
(-0.37333764 0 0)
(-0.38556384 0 0)
(-0.39641401 0 0)
(-0.40575203 0 0)
(-0.41344747 0 0)
(-0.41941643 0 0)
(-0.42364678 0 0)
(-0.42616308 0 0)
(-0.42705069 0 0)
(-0.42646059 0 0)
(-0.42466406 0 0)
(-0.42201525 0 0)
(-0.41897842 0 0)
(-0.41615949 0 0)
(-0.4142363 0 0)
(-0.41395048 0 0)
(-0.017899359 0 0)
(-0.051808978 0 0)
(-0.083473886 0 0)
(-0.11311661 0 0)
(-0.14070581 0 0)
(-0.16658686 0 0)
(-0.1909302 0 0)
(-0.21394629 0 0)
(-0.23587093 0 0)
(-0.2566608 0 0)
(-0.27639071 0 0)
(-0.2951969 0 0)
(-0.31304903 0 0)
(-0.32994559 0 0)
(-0.34589036 0 0)
(-0.36084376 0 0)
(-0.37472232 0 0)
(-0.3874336 0 0)
(-0.39885855 0 0)
(-0.40886076 0 0)
(-0.41730049 0 0)
(-0.42406281 0 0)
(-0.42909493 0 0)
(-0.432374 0 0)
(-0.43393653 0 0)
(-0.43387702 0 0)
(-0.43238217 0 0)
(-0.4297387 0 0)
(-0.42631128 0 0)
(-0.42259929 0 0)
(-0.41920101 0 0)
(-0.41681593 0 0)
(-0.41615949 0 0)
(-0.017832114 0 0)
(-0.051576798 0 0)
(-0.08305884 0 0)
(-0.11281245 0 0)
(-0.14071548 0 0)
(-0.16658835 0 0)
(-0.19092022 0 0)
(-0.21393062 0 0)
(-0.23586226 0 0)
(-0.256671 0 0)
(-0.27643157 0 0)
(-0.29530382 0 0)
(-0.31325759 0 0)
(-0.3302969 0 0)
(-0.34644068 0 0)
(-0.36166965 0 0)
(-0.37590009 0 0)
(-0.38903899 0 0)
(-0.40098267 0 0)
(-0.41160593 0 0)
(-0.420763 0 0)
(-0.4283147 0 0)
(-0.4341683 0 0)
(-0.43826408 0 0)
(-0.44059471 0 0)
(-0.44120762 0 0)
(-0.44022775 0 0)
(-0.43784645 0 0)
(-0.43437966 0 0)
(-0.43022063 0 0)
(-0.42586346 0 0)
(-0.42192937 0 0)
(-0.41910282 0 0)
(-0.41811462 0 0)
(-0.017774743 0 0)
(-0.051373524 0 0)
(-0.082687489 0 0)
(-0.11226286 0 0)
(-0.14034976 0 0)
(-0.16659788 0 0)
(-0.19092066 0 0)
(-0.21392423 0 0)
(-0.2358564 0 0)
(-0.25667547 0 0)
(-0.27645606 0 0)
(-0.29537999 0 0)
(-0.31341112 0 0)
(-0.33056856 0 0)
(-0.34688457 0 0)
(-0.36234812 0 0)
(-0.37688198 0 0)
(-0.3904098 0 0)
(-0.40282949 0 0)
(-0.41401652 0 0)
(-0.42383729 0 0)
(-0.43215087 0 0)
(-0.43881959 0 0)
(-0.44375607 0 0)
(-0.44692855 0 0)
(-0.44832235 0 0)
(-0.44800758 0 0)
(-0.44612029 0 0)
(-0.44288661 0 0)
(-0.43863394 0 0)
(-0.43376674 0 0)
(-0.42880662 0 0)
(-0.4243612 0 0)
(-0.42113214 0 0)
(-0.41982531 0 0)
(-0.017727836 0 0)
(-0.051200156 0 0)
(-0.082362707 0 0)
(-0.11177058 0 0)
(-0.13967213 0 0)
(-0.16617156 0 0)
(-0.19093468 0 0)
(-0.21393002 0 0)
(-0.23585777 0 0)
(-0.25668074 0 0)
(-0.27647121 0 0)
(-0.29543391 0 0)
(-0.31352845 0 0)
(-0.33078013 0 0)
(-0.3472345 0 0)
(-0.36290188 0 0)
(-0.37770496 0 0)
(-0.39156906 0 0)
(-0.40440743 0 0)
(-0.41611065 0 0)
(-0.42654813 0 0)
(-0.43557568 0 0)
(-0.44304269 0 0)
(-0.44882976 0 0)
(-0.45286932 0 0)
(-0.45511426 0 0)
(-0.45557783 0 0)
(-0.4543439 0 0)
(-0.45157994 0 0)
(-0.44751534 0 0)
(-0.4425049 0 0)
(-0.43697581 0 0)
(-0.43144245 0 0)
(-0.42652702 0 0)
(-0.42291379 0 0)
(-0.42132259 0 0)
(-0.01769145 0 0)
(-0.051058209 0 0)
(-0.082086181 0 0)
(-0.11134047 0 0)
(-0.13906764 0 0)
(-0.16537292 0 0)
(-0.19045115 0 0)
(-0.21395079 0 0)
(-0.23587155 0 0)
(-0.25669188 0 0)
(-0.27648154 0 0)
(-0.29547464 0 0)
(-0.31361525 0 0)
(-0.33094128 0 0)
(-0.34751268 0 0)
(-0.36335063 0 0)
(-0.37837967 0 0)
(-0.3925433 0 0)
(-0.40576032 0 0)
(-0.41792373 0 0)
(-0.42891541 0 0)
(-0.43860316 0 0)
(-0.44683541 0 0)
(-0.4534601 0 0)
(-0.45836706 0 0)
(-0.46149768 0 0)
(-0.46282939 0 0)
(-0.4623743 0 0)
(-0.46024625 0 0)
(-0.45662275 0 0)
(-0.45176455 0 0)
(-0.44603341 0 0)
(-0.43986857 0 0)
(-0.43380345 0 0)
(-0.42844067 0 0)
(-0.42447869 0 0)
(-0.42261537 0 0)
(-0.017666207 0 0)
(-0.050947997 0 0)
(-0.081859376 0 0)
(-0.11097356 0 0)
(-0.13853734 0 0)
(-0.16466142 0 0)
(-0.18954458 0 0)
(-0.21342087 0 0)
(-0.23589454 0 0)
(-0.25670966 0 0)
(-0.27649689 0 0)
(-0.29550907 0 0)
(-0.31368491 0 0)
(-0.33106855 0 0)
(-0.34773043 0 0)
(-0.36371312 0 0)
(-0.37894004 0 0)
(-0.39335751 0 0)
(-0.4068992 0 0)
(-0.41947519 0 0)
(-0.43097398 0 0)
(-0.44126701 0 0)
(-0.45020526 0 0)
(-0.4576374 0 0)
(-0.46341518 0 0)
(-0.46744282 0 0)
(-0.46968014 0 0)
(-0.47009416 0 0)
(-0.46873173 0 0)
(-0.46572197 0 0)
(-0.46127356 0 0)
(-0.45564648 0 0)
(-0.44922596 0 0)
(-0.44247038 0 0)
(-0.43590167 0 0)
(-0.43013017 0 0)
(-0.42583607 0 0)
(-0.42373104 0 0)
(-0.017651901 0 0)
(-0.050871175 0 0)
(-0.081684294 0 0)
(-0.110673 0 0)
(-0.13808692 0 0)
(-0.16403728 0 0)
(-0.18873328 0 0)
(-0.21241588 0 0)
(-0.23531834 0 0)
(-0.25673982 0 0)
(-0.27651596 0 0)
(-0.29554257 0 0)
(-0.31374372 0 0)
(-0.33116946 0 0)
(-0.34790524 0 0)
(-0.36400735 0 0)
(-0.37939532 0 0)
(-0.39403368 0 0)
(-0.40786494 0 0)
(-0.42080238 0 0)
(-0.43274773 0 0)
(-0.44358753 0 0)
(-0.45318185 0 0)
(-0.46136973 0 0)
(-0.46799281 0 0)
(-0.47292083 0 0)
(-0.47607009 0 0)
(-0.47740361 0 0)
(-0.47691746 0 0)
(-0.47466197 0 0)
(-0.47079972 0 0)
(-0.46554714 0 0)
(-0.45919082 0 0)
(-0.45211833 0 0)
(-0.44479925 0 0)
(-0.43776695 0 0)
(-0.43160696 0 0)
(-0.42701232 0 0)
(-0.42467766 0 0)
(-0.017649091 0 0)
(-0.050827204 0 0)
(-0.081561225 0 0)
(-0.1104399 0 0)
(-0.13771637 0 0)
(-0.16350783 0 0)
(-0.18802551 0 0)
(-0.2115167 0 0)
(-0.23421189 0 0)
(-0.25611199 0 0)
(-0.27655035 0 0)
(-0.29558414 0 0)
(-0.31379925 0 0)
(-0.33125639 0 0)
(-0.34804697 0 0)
(-0.36424746 0 0)
(-0.37977421 0 0)
(-0.39459683 0 0)
(-0.40866983 0 0)
(-0.42192443 0 0)
(-0.43427058 0 0)
(-0.44560444 0 0)
(-0.45578858 0 0)
(-0.46467432 0 0)
(-0.47210354 0 0)
(-0.47791655 0 0)
(-0.48199046 0 0)
(-0.48426127 0 0)
(-0.48470474 0 0)
(-0.48331507 0 0)
(-0.48018416 0 0)
(-0.47548722 0 0)
(-0.46946844 0 0)
(-0.46240996 0 0)
(-0.45471882 0 0)
(-0.44687964 0 0)
(-0.43940952 0 0)
(-0.43289587 0 0)
(-0.4280163 0 0)
(-0.42547846 0 0)
(-0.05081773 0 0)
(-0.017654955 0 0)
(-0.081492155 0 0)
(-0.11027623 0 0)
(-0.13743006 0 0)
(-0.16307221 0 0)
(-0.18742238 0 0)
(-0.21073232 0 0)
(-0.23322471 0 0)
(-0.25491096 0 0)
(-0.27587501 0 0)
(-0.2956308 0 0)
(-0.31386084 0 0)
(-0.33133781 0 0)
(-0.34816884 0 0)
(-0.36444837 0 0)
(-0.38008481 0 0)
(-0.39506355 0 0)
(-0.40934912 0 0)
(-0.42287655 0 0)
(-0.4355688 0 0)
(-0.44733856 0 0)
(-0.45806301 0 0)
(-0.46758906 0 0)
(-0.47576095 0 0)
(-0.48242291 0 0)
(-0.48741649 0 0)
(-0.49063467 0 0)
(-0.49202444 0 0)
(-0.49156964 0 0)
(-0.48929914 0 0)
(-0.48531065 0 0)
(-0.47981201 0 0)
(-0.47305156 0 0)
(-0.46533221 0 0)
(-0.45705915 0 0)
(-0.44872677 0 0)
(-0.44085585 0 0)
(-0.43400692 0 0)
(-0.42887071 0 0)
(-0.4261413 0 0)
(-0.081476287 0 0)
(-0.050834303 0 0)
(-0.017669992 0 0)
(-0.11018308 0 0)
(-0.13722782 0 0)
(-0.16273593 0 0)
(-0.18692882 0 0)
(-0.21006389 0 0)
(-0.2323582 0 0)
(-0.25383148 0 0)
(-0.27458123 0 0)
(-0.29492654 0 0)
(-0.31392536 0 0)
(-0.33141944 0 0)
(-0.34828098 0 0)
(-0.36462119 0 0)
(-0.3803498 0 0)
(-0.39545606 0 0)
(-0.40991461 0 0)
(-0.42367658 0 0)
(-0.43667274 0 0)
(-0.44883023 0 0)
(-0.46003195 0 0)
(-0.47013678 0 0)
(-0.47899848 0 0)
(-0.48645359 0 0)
(-0.4923345 0 0)
(-0.49650076 0 0)
(-0.49885815 0 0)
(-0.49936764 0 0)
(-0.49803157 0 0)
(-0.49488284 0 0)
(-0.49006058 0 0)
(-0.48378259 0 0)
(-0.47632089 0 0)
(-0.46796953 0 0)
(-0.45914845 0 0)
(-0.45036396 0 0)
(-0.44211505 0 0)
(-0.4349615 0 0)
(-0.42958407 0 0)
(-0.42668615 0 0)
(-0.11016096 0 0)
(-0.081504499 0 0)
(-0.050878698 0 0)
(-0.017695946 0 0)
(-0.13711269 0 0)
(-0.16249891 0 0)
(-0.18654633 0 0)
(-0.20951673 0 0)
(-0.23162195 0 0)
(-0.25288862 0 0)
(-0.27341737 0 0)
(-0.29354818 0 0)
(-0.31319039 0 0)
(-0.33150859 0 0)
(-0.3483906 0 0)
(-0.36477744 0 0)
(-0.38057691 0 0)
(-0.39578733 0 0)
(-0.4103955 0 0)
(-0.42435551 0 0)
(-0.43760896 0 0)
(-0.45010034 0 0)
(-0.46173086 0 0)
(-0.47235957 0 0)
(-0.48184217 0 0)
(-0.49003005 0 0)
(-0.496755 0 0)
(-0.50184673 0 0)
(-0.50517558 0 0)
(-0.50667077 0 0)
(-0.50629874 0 0)
(-0.50407898 0 0)
(-0.50008043 0 0)
(-0.49444661 0 0)
(-0.48742554 0 0)
(-0.47928975 0 0)
(-0.47034815 0 0)
(-0.46101627 0 0)
(-0.45180395 0 0)
(-0.44320977 0 0)
(-0.43576924 0 0)
(-0.43017515 0 0)
(-0.42712032 0 0)
(-0.13708437 0 0)
(-0.11019555 0 0)
(-0.081574663 0 0)
(-0.050955806 0 0)
(-0.017733312 0 0)
(-0.16236412 0 0)
(-0.18627787 0 0)
(-0.20909255 0 0)
(-0.23101541 0 0)
(-0.25208128 0 0)
(-0.27240301 0 0)
(-0.29231712 0 0)
(-0.31173438 0 0)
(-0.33073808 0 0)
(-0.34850653 0 0)
(-0.36492784 0 0)
(-0.38078169 0 0)
(-0.39607598 0 0)
(-0.41080218 0 0)
(-0.42492869 0 0)
(-0.43840305 0 0)
(-0.45118633 0 0)
(-0.46318892 0 0)
(-0.47428051 0 0)
(-0.48433152 0 0)
(-0.49319153 0 0)
(-0.50069393 0 0)
(-0.50667181 0 0)
(-0.51096116 0 0)
(-0.51344856 0 0)
(-0.51407475 0 0)
(-0.51282652 0 0)
(-0.50974403 0 0)
(-0.50490386 0 0)
(-0.49848793 0 0)
(-0.49075039 0 0)
(-0.48198217 0 0)
(-0.47247985 0 0)
(-0.46267026 0 0)
(-0.45306851 0 0)
(-0.44414919 0 0)
(-0.4364485 0 0)
(-0.43065267 0 0)
(-0.42746015 0 0)
(-0.1623316 0 0)
(-0.13712534 0 0)
(-0.11028615 0 0)
(-0.081700474 0 0)
(-0.051067595 0 0)
(-0.017781254 0 0)
(-0.18612486 0 0)
(-0.20879443 0 0)
(-0.23054575 0 0)
(-0.25141957 0 0)
(-0.27153369 0 0)
(-0.29123684 0 0)
(-0.31043515 0 0)
(-0.32920364 0 0)
(-0.34770759 0 0)
(-0.36507414 0 0)
(-0.38097449 0 0)
(-0.3963334 0 0)
(-0.4111573 0 0)
(-0.42542126 0 0)
(-0.43907911 0 0)
(-0.45210799 0 0)
(-0.46443799 0 0)
(-0.47594235 0 0)
(-0.48649545 0 0)
(-0.49596419 0 0)
(-0.50418974 0 0)
(-0.51099442 0 0)
(-0.51620549 0 0)
(-0.51967922 0 0)
(-0.52131745 0 0)
(-0.52107763 0 0)
(-0.51895682 0 0)
(-0.51501776 0 0)
(-0.50936996 0 0)
(-0.50219809 0 0)
(-0.49378245 0 0)
(-0.48441092 0 0)
(-0.47438956 0 0)
(-0.46413769 0 0)
(-0.45416788 0 0)
(-0.44495263 0 0)
(-0.43700858 0 0)
(-0.43103224 0 0)
(-0.42771296 0 0)
(-0.18608812 0 0)
(-0.16238003 0 0)
(-0.13723546 0 0)
(-0.11044869 0 0)
(-0.081878569 0 0)
(-0.051210957 0 0)
(-0.01784008 0 0)
(-0.2086244 0 0)
(-0.23021278 0 0)
(-0.25090262 0 0)
(-0.27082268 0 0)
(-0.2903178 0 0)
(-0.30929509 0 0)
(-0.32783009 0 0)
(-0.34609357 0 0)
(-0.36425442 0 0)
(-0.38115731 0 0)
(-0.39657159 0 0)
(-0.41147196 0 0)
(-0.42584646 0 0)
(-0.43965791 0 0)
(-0.45289741 0 0)
(-0.46550733 0 0)
(-0.477368 0 0)
(-0.48837182 0 0)
(-0.4983911 0 0)
(-0.50726785 0 0)
(-0.51483618 0 0)
(-0.52092326 0 0)
(-0.52535737 0 0)
(-0.52800484 0 0)
(-0.52879069 0 0)
(-0.52768109 0 0)
(-0.52469993 0 0)
(-0.5199307 0 0)
(-0.51349036 0 0)
(-0.5055963 0 0)
(-0.49653213 0 0)
(-0.48659891 0 0)
(-0.47608781 0 0)
(-0.46542475 0 0)
(-0.45512198 0 0)
(-0.44562907 0 0)
(-0.43746477 0 0)
(-0.43132244 0 0)
(-0.42789241 0 0)
(-0.20858275 0 0)
(-0.18614428 0 0)
(-0.16251005 0 0)
(-0.13743262 0 0)
(-0.11068118 0 0)
(-0.082111749 0 0)
(-0.051388087 0 0)
(-0.017908883 0 0)
(-0.23002086 0 0)
(-0.25053781 0 0)
(-0.27026807 0 0)
(-0.28956045 0 0)
(-0.30832641 0 0)
(-0.32663196 0 0)
(-0.34465 0 0)
(-0.36256354 0 0)
(-0.38031824 0 0)
(-0.39679771 0 0)
(-0.41176019 0 0)
(-0.42622329 0 0)
(-0.44015971 0 0)
(-0.45357269 0 0)
(-0.46642332 0 0)
(-0.4785969 0 0)
(-0.48999165 0 0)
(-0.50049852 0 0)
(-0.50997289 0 0)
(-0.51824267 0 0)
(-0.52513582 0 0)
(-0.53048567 0 0)
(-0.53412511 0 0)
(-0.53593771 0 0)
(-0.53586463 0 0)
(-0.53389442 0 0)
(-0.53006338 0 0)
(-0.52447845 0 0)
(-0.5172837 0 0)
(-0.50869686 0 0)
(-0.49902331 0 0)
(-0.4885583 0 0)
(-0.47759716 0 0)
(-0.46655672 0 0)
(-0.45593953 0 0)
(-0.44619428 0 0)
(-0.43782619 0 0)
(-0.43153557 0 0)
(-0.42800527 0 0)
(-0.22997022 0 0)
(-0.20864323 0 0)
(-0.18629159 0 0)
(-0.16274167 0 0)
(-0.13771682 0 0)
(-0.11098367 0 0)
(-0.082394996 0 0)
(-0.051594944 0 0)
(-0.017987772 0 0)
(-0.25032469 0 0)
(-0.26987762 0 0)
(-0.28897297 0 0)
(-0.30752811 0 0)
(-0.32561005 0 0)
(-0.34339259 0 0)
(-0.36105583 0 0)
(-0.37855578 0 0)
(-0.39593662 0 0)
(-0.41203092 0 0)
(-0.42656659 0 0)
(-0.44060252 0 0)
(-0.45415923 0 0)
(-0.46721212 0 0)
(-0.47965028 0 0)
(-0.49138863 0 0)
(-0.5023297 0 0)
(-0.51233321 0 0)
(-0.52123827 0 0)
(-0.52888073 0 0)
(-0.53508531 0 0)
(-0.53967694 0 0)
(-0.54250713 0 0)
(-0.54347738 0 0)
(-0.54254799 0 0)
(-0.53972039 0 0)
(-0.53505998 0 0)
(-0.52869008 0 0)
(-0.52076173 0 0)
(-0.51151866 0 0)
(-0.50126726 0 0)
(-0.49031082 0 0)
(-0.47892764 0 0)
(-0.4675383 0 0)
(-0.4566378 0 0)
(-0.44665759 0 0)
(-0.43810581 0 0)
(-0.43168041 0 0)
(-0.4280619 0 0)
(-0.2502667 0 0)
(-0.23003106 0 0)
(-0.20880401 0 0)
(-0.18655705 0 0)
(-0.16307638 0 0)
(-0.1380853 0 0)
(-0.11135359 0 0)
(-0.082731099 0 0)
(-0.0518337 0 0)
(-0.018076124 0 0)
(-0.26965137 0 0)
(-0.28855516 0 0)
(-0.30690938 0 0)
(-0.32477284 0 0)
(-0.34232075 0 0)
(-0.3597387 0 0)
(-0.37698538 0 0)
(-0.39410113 0 0)
(-0.41115011 0 0)
(-0.42687969 0 0)
(-0.44100076 0 0)
(-0.45467516 0 0)
(-0.46789599 0 0)
(-0.48056201 0 0)
(-0.4925932 0 0)
(-0.50391051 0 0)
(-0.51439041 0 0)
(-0.52387161 0 0)
(-0.5321897 0 0)
(-0.53918321 0 0)
(-0.54467683 0 0)
(-0.54849409 0 0)
(-0.55050033 0 0)
(-0.55062457 0 0)
(-0.54883915 0 0)
(-0.54517142 0 0)
(-0.53969865 0 0)
(-0.53256553 0 0)
(-0.52394438 0 0)
(-0.51407664 0 0)
(-0.50328607 0 0)
(-0.49186797 0 0)
(-0.48009994 0 0)
(-0.46839223 0 0)
(-0.45722483 0 0)
(-0.44703201 0 0)
(-0.43831209 0 0)
(-0.43176632 0 0)
(-0.42806929 0 0)
(-0.26959138 0 0)
(-0.25033078 0 0)
(-0.23020425 0 0)
(-0.2090947 0 0)
(-0.18693643 0 0)
(-0.16350939 0 0)
(-0.1385382 0 0)
(-0.11179026 0 0)
(-0.083114546 0 0)
(-0.052100521 0 0)
(-0.018173531 0 0)
(-0.28831287 0 0)
(-0.30647014 0 0)
(-0.32412088 0 0)
(-0.34144383 0 0)
(-0.35861968 0 0)
(-0.37561301 0 0)
(-0.39246372 0 0)
(-0.40923988 0 0)
(-0.42598517 0 0)
(-0.44136529 0 0)
(-0.4551372 0 0)
(-0.46849651 0 0)
(-0.48135133 0 0)
(-0.49363419 0 0)
(-0.50528074 0 0)
(-0.51617521 0 0)
(-0.52616715 0 0)
(-0.53510487 0 0)
(-0.5428229 0 0)
(-0.5491484 0 0)
(-0.5539077 0 0)
(-0.55693158 0 0)
(-0.55810689 0 0)
(-0.55738106 0 0)
(-0.55474913 0 0)
(-0.55025197 0 0)
(-0.54399437 0 0)
(-0.53613235 0 0)
(-0.52684386 0 0)
(-0.51638909 0 0)
(-0.50509158 0 0)
(-0.49324958 0 0)
(-0.48112316 0 0)
(-0.46912274 0 0)
(-0.45771538 0 0)
(-0.4473268 0 0)
(-0.4384554 0 0)
(-0.43180227 0 0)
(-0.42803571 0 0)
(-0.28824545 0 0)
(-0.26966356 0 0)
(-0.25051634 0 0)
(-0.23051786 0 0)
(-0.20951125 0 0)
(-0.18743246 0 0)
(-0.16404284 0 0)
(-0.13907092 0 0)
(-0.11229136 0 0)
(-0.083547994 0 0)
(-0.052396388 0 0)
(-0.018256427 0 0)
(-0.30621572 0 0)
(-0.32366065 0 0)
(-0.3407614 0 0)
(-0.35770098 0 0)
(-0.37444817 0 0)
(-0.39103736 0 0)
(-0.4075353 0 0)
(-0.42399817 0 0)
(-0.44045396 0 0)
(-0.45555858 0 0)
(-0.46903434 0 0)
(-0.48204463 0 0)
(-0.4945387 0 0)
(-0.50646489 0 0)
(-0.51772491 0 0)
(-0.52817319 0 0)
(-0.53766 0 0)
(-0.54603473 0 0)
(-0.55313206 0 0)
(-0.55876788 0 0)
(-0.56276188 0 0)
(-0.56497688 0 0)
(-0.5653191 0 0)
(-0.56374959 0 0)
(-0.56027915 0 0)
(-0.55497736 0 0)
(-0.54795774 0 0)
(-0.5393943 0 0)
(-0.52948041 0 0)
(-0.5184713 0 0)
(-0.50670385 0 0)
(-0.49446683 0 0)
(-0.4820151 0 0)
(-0.46974843 0 0)
(-0.45811731 0 0)
(-0.44755167 0 0)
(-0.43854422 0 0)
(-0.43179481 0 0)
(-0.4279577 0 0)
(-0.30614599 0 0)
(-0.28831683 0 0)
(-0.26986475 0 0)
(-0.2508571 0 0)
(-0.23097327 0 0)
(-0.21005388 0 0)
(-0.1880375 0 0)
(-0.16466928 0 0)
(-0.1396832 0 0)
(-0.11285317 0 0)
(-0.084024412 0 0)
(-0.052589185 0 0)
(-0.018263287 0 0)
(-0.32339236 0 0)
(-0.34028035 0 0)
(-0.35698875 0 0)
(-0.37349205 0 0)
(-0.38982486 0 0)
(-0.40605311 0 0)
(-0.42223155 0 0)
(-0.43839864 0 0)
(-0.4546357 0 0)
(-0.46951698 0 0)
(-0.48266328 0 0)
(-0.49533236 0 0)
(-0.50749707 0 0)
(-0.51907036 0 0)
(-0.52991442 0 0)
(-0.53989533 0 0)
(-0.54886508 0 0)
(-0.55665929 0 0)
(-0.56310562 0 0)
(-0.56802344 0 0)
(-0.57124622 0 0)
(-0.5726443 0 0)
(-0.57214661 0 0)
(-0.56973425 0 0)
(-0.56544281 0 0)
(-0.55935423 0 0)
(-0.55160585 0 0)
(-0.54237731 0 0)
(-0.53186667 0 0)
(-0.52034062 0 0)
(-0.50813525 0 0)
(-0.49553775 0 0)
(-0.48278524 0 0)
(-0.47027522 0 0)
(-0.45844278 0 0)
(-0.44771658 0 0)
(-0.43858699 0 0)
(-0.43170414 0 0)
(-0.42782748 0 0)
(-0.32331971 0 0)
(-0.30622168 0 0)
(-0.28852662 0 0)
(-0.27023385 0 0)
(-0.25134896 0 0)
(-0.231565 0 0)
(-0.21071803 0 0)
(-0.18875433 0 0)
(-0.16539125 0 0)
(-0.14037143 0 0)
(-0.11347457 0 0)
(-0.084322928 0 0)
(-0.052617996 0 0)
(-0.018270514 0 0)
(-0.34000054 0 0)
(-0.35648389 0 0)
(-0.37275119 0 0)
(-0.38883229 0 0)
(-0.4047926 0 0)
(-0.42069026 0 0)
(-0.4365675 0 0)
(-0.45250986 0 0)
(-0.46858653 0 0)
(-0.48321446 0 0)
(-0.49603626 0 0)
(-0.50840113 0 0)
(-0.52024288 0 0)
(-0.53143449 0 0)
(-0.54184611 0 0)
(-0.55134433 0 0)
(-0.55977735 0 0)
(-0.56697022 0 0)
(-0.57274 0 0)
(-0.57691174 0 0)
(-0.57933718 0 0)
(-0.57991498 0 0)
(-0.57858254 0 0)
(-0.57534131 0 0)
(-0.57024436 0 0)
(-0.56340017 0 0)
(-0.55495034 0 0)
(-0.54508825 0 0)
(-0.53402251 0 0)
(-0.52201238 0 0)
(-0.50940353 0 0)
(-0.49647304 0 0)
(-0.48344869 0 0)
(-0.47071779 0 0)
(-0.45869977 0 0)
(-0.44782891 0 0)
(-0.43848061 0 0)
(-0.43153566 0 0)
(-0.42764817 0 0)
(-0.33992534 0 0)
(-0.3233987 0 0)
(-0.3064427 0 0)
(-0.28891166 0 0)
(-0.27076348 0 0)
(-0.25199364 0 0)
(-0.23229436 0 0)
(-0.21150248 0 0)
(-0.1895746 0 0)
(-0.16620172 0 0)
(-0.14113104 0 0)
(-0.1138439 0 0)
(-0.084376126 0 0)
(-0.05264833 0 0)
(-0.01827835 0 0)
(-0.35619123 0 0)
(-0.37222742 0 0)
(-0.38806172 0 0)
(-0.40376258 0 0)
(-0.41938452 0 0)
(-0.43497452 0 0)
(-0.45061556 0 0)
(-0.46638359 0 0)
(-0.48227854 0 0)
(-0.49666562 0 0)
(-0.50920198 0 0)
(-0.52127031 0 0)
(-0.53275802 0 0)
(-0.54354874 0 0)
(-0.55351842 0 0)
(-0.5625186 0 0)
(-0.57038636 0 0)
(-0.57694604 0 0)
(-0.58201555 0 0)
(-0.58542756 0 0)
(-0.58705512 0 0)
(-0.58680467 0 0)
(-0.58463788 0 0)
(-0.58057702 0 0)
(-0.57469962 0 0)
(-0.56712356 0 0)
(-0.55800947 0 0)
(-0.54755118 0 0)
(-0.53596106 0 0)
(-0.52350292 0 0)
(-0.5105217 0 0)
(-0.49728833 0 0)
(-0.48401483 0 0)
(-0.47108321 0 0)
(-0.45889859 0 0)
(-0.44770604 0 0)
(-0.43824527 0 0)
(-0.43132542 0 0)
(-0.42741673 0 0)
(-0.35611022 0 0)
(-0.34000798 0 0)
(-0.32362984 0 0)
(-0.30684817 0 0)
(-0.28947148 0 0)
(-0.27145563 0 0)
(-0.25278249 0 0)
(-0.23315369 0 0)
(-0.21240375 0 0)
(-0.19049832 0 0)
(-0.16709792 0 0)
(-0.14157737 0 0)
(-0.11390037 0 0)
(-0.084434921 0 0)
(-0.052682336 0 0)
(-0.018286726 0 0)
(-0.37192368 0 0)
(-0.38751767 0 0)
(-0.40296266 0 0)
(-0.41831318 0 0)
(-0.43362155 0 0)
(-0.44897014 0 0)
(-0.46442645 0 0)
(-0.48000057 0 0)
(-0.49572555 0 0)
(-0.50991623 0 0)
(-0.52218052 0 0)
(-0.53392021 0 0)
(-0.54503677 0 0)
(-0.55541685 0 0)
(-0.56492746 0 0)
(-0.57340941 0 0)
(-0.58068737 0 0)
(-0.58658478 0 0)
(-0.59093071 0 0)
(-0.5935657 0 0)
(-0.59437574 0 0)
(-0.59329979 0 0)
(-0.59030991 0 0)
(-0.58545117 0 0)
(-0.57881562 0 0)
(-0.57054374 0 0)
(-0.56079593 0 0)
(-0.54977544 0 0)
(-0.53770092 0 0)
(-0.52482725 0 0)
(-0.51150477 0 0)
(-0.49799396 0 0)
(-0.48449464 0 0)
(-0.47138261 0 0)
(-0.45875808 0 0)
(-0.44737984 0 0)
(-0.43797738 0 0)
(-0.4310672 0 0)
(-0.4271341 0 0)
(-0.37184172 0 0)
(-0.35619419 0 0)
(-0.34024862 0 0)
(-0.32405613 0 0)
(-0.30743855 0 0)
(-0.29020121 0 0)
(-0.27230128 0 0)
(-0.25371754 0 0)
(-0.2341431 0 0)
(-0.21341779 0 0)
(-0.19151721 0 0)
(-0.16761993 0 0)
(-0.14164095 0 0)
(-0.11396323 0 0)
(-0.084496827 0 0)
(-0.052717185 0 0)
(-0.018295679 0 0)
(-0.38720152 0 0)
(-0.40239887 0 0)
(-0.41748423 0 0)
(-0.4325146 0 0)
(-0.44757181 0 0)
(-0.46272391 0 0)
(-0.47798054 0 0)
(-0.49337886 0 0)
(-0.50897838 0 0)
(-0.5229859 0 0)
(-0.53494828 0 0)
(-0.54634351 0 0)
(-0.55708166 0 0)
(-0.56703801 0 0)
(-0.57606437 0 0)
(-0.58399666 0 0)
(-0.59065944 0 0)
(-0.59587614 0 0)
(-0.59947539 0 0)
(-0.60131857 0 0)
(-0.60131799 0 0)
(-0.59941538 0 0)
(-0.59561195 0 0)
(-0.58997238 0 0)
(-0.58261003 0 0)
(-0.57367081 0 0)
(-0.56332888 0 0)
(-0.55178323 0 0)
(-0.53925615 0 0)
(-0.52600073 0 0)
(-0.51236589 0 0)
(-0.49860186 0 0)
(-0.48490019 0 0)
(-0.47122625 0 0)
(-0.45832592 0 0)
(-0.44703536 0 0)
(-0.43767245 0 0)
(-0.43076405 0 0)
(-0.42679626 0 0)
(-0.38711554 0 0)
(-0.37192915 0 0)
(-0.35644235 0 0)
(-0.34069316 0 0)
(-0.32467486 0 0)
(-0.30820827 0 0)
(-0.29109987 0 0)
(-0.27330206 0 0)
(-0.25478912 0 0)
(-0.23525637 0 0)
(-0.21454088 0 0)
(-0.19210562 0 0)
(-0.16769808 0 0)
(-0.14171538 0 0)
(-0.11403537 0 0)
(-0.084561198 0 0)
(-0.052753742 0 0)
(-0.018304809 0 0)
(-0.40207196 0 0)
(-0.41689675 0 0)
(-0.43165451 0 0)