/*--------------------------------*- C++ -*----------------------------------*\
| =========                 |                                                 |
| \\      /  F ield         | OpenFOAM: The Open Source CFD Toolbox           |
|  \\    /   O peration     | Version:  v2012                                 |
|   \\  /    A nd           | Website:  www.openfoam.com                      |
|    \\/     M anipulation  |                                                 |
\*---------------------------------------------------------------------------*/
FoamFile
{
    version     2.0;
    format      ascii;
    class       surfaceScalarField;
    location    "63.7469491763794949";
    object      meshPhi;
}
// * * * * * * * * * * * * * * * * * * * * * * * * * * * * * * * * * * * * * //

dimensions      [0 3 -1 0 0 0 0];
oriented        oriented;


internalField   nonuniform List<scalar> 
18180
(
0
0.054230164
0
0.049157649
0
0.10993703
0
0.044471838
0
0.10040833
0
0.16713941
0
0.041084994
-1.0373128e-13
0.09142313
0
0.15354408
0
0.22306264
-2.257842e-17
0.038739119
-5.1873609e-14
0.084125998
0
0.14039395
0
0.2061109
-4.7556924e-17
0.27672526
-5.3844861e-14
0.036975194
-2.3190553e-17
0.078745115
4.9939835e-14
0.12948036
0
0.18973935
0
0.25657109
8.9234832e-14
0.32656828
0
0.035478186
-5.1866098e-14
0.074663904
-4.9996041e-14
0.12087313
4.8102269e-14
0.17535492
0
0.23708712
0
0.30369893
0
0.37295394
0
0.034041777
0
0.071159286
0
0.1139337
0
0.16340143
0
0.21944746
0
0.28148107
0
0.3474492
0
0.4152339
0
0.032608129
0
0.067919044
4.9961187e-14
0.10806071
0
0.15362405
4.6343049e-14
0.20440827
0
0.26114364
0
0.3231027
0
0.3876967
0
0.45404243
-5.3897741e-14
0.031163984
0
0.064779237
-4.9966938e-14
0.10274506
4.8123645e-14
0.14537143
-4.6350598e-14
0.19193847
0
0.24347238
0
0.30064007
0
0.36161517
0
0.42453
-3.11893e-17
0.48908561
0
0.029716225
-5.1914156e-14
0.061694504
4.999697e-14
0.097708179
4.815447e-14
0.13799236
0
0.1813029
0
0.22829901
-2.1674488e-17
0.28075011
0
0.33767522
7.9796836e-14
0.39700766
0
0.45793623
0
0.52098352
0
0.028276422
0
0.058653122
-2.531447e-17
0.092827484
0
0.13110136
0
0.1718429
4.465882e-14
0.21524575
0
0.26347039
8.2882767e-14
0.31624333
0
0.37169788
-7.6910036e-14
0.429088
0
0.48821197
7.1335442e-14
0.54959936
1.3372096e-17
0.026848004
0
0.055659515
0
0.088058842
0
0.1244893
4.6393466e-14
0.16310458
4.4665722e-14
0.20360506
0
0.24803084
0
0.29695095
3.9914862e-14
0.34875852
1.6831731e-17
0.40246873
-2.9744932e-17
0.45811237
0
0.51551151
6.8727069e-14
0.57572224
0
0.025436666
0
0.052722093
0
0.0833962
0
0.11808009
0
0.15478539
-4.4671844e-14
0.19278713
0
0.23395481
0
0.27938567
0
0.32778594
-1.7020124e-17
0.3780286
3.7056693e-14
0.43025885
7.1359412e-14
0.48431849
0
0.54028041
-2.096649e-17
0.59928861
0
0.024051102
2.5950445e-14
0.049856174
0
0.078853667
0
0.11185616
0
0.1467732
0
0.18255163
0
0.22092043
0
0.26314152
-3.9953463e-14
0.30828087
-3.8465967e-14
0.35534434
-1.5310503e-17
0.40439397
-3.568865e-14
0.45532874
6.8752696e-14
0.50802351
0
0.56268776
6.3795472e-14
0.62083339
-2.6959163e-14
0.022700152
2.5951166e-14
0.047077128
0
0.074448026
0
0.10582747
0
0.13903478
0
0.17273491
4.3044442e-14
0.20859193
0
0.24794519
0
0.29006663
0
0.33407589
3.707727e-14
0.38007945
3.569894e-14
0.42813992
-3.4398243e-14
0.4779974
-6.6264128e-14
0.52945194
0
0.58301565
0
0.64024535
0
0.021388267
0
0.04439428
-1.3113561e-17
0.07020058
-1.3603992e-17
0.10000615
2.3204641e-14
0.13157144
0
0.16329507
0
0.19683743
0
0.23364504
0
0.27307746
0
0.31422497
0
0.35729598
-3.5710053e-14
0.40254405
3.4396678e-14
0.44972821
6.6262378e-14
0.49849186
0
0.54882526
0
0.60140323
-1.5742803e-17
0.65805819
-2.6946379e-14
0.020119919
-1.3256578e-17
0.041815154
2.4994009e-14
0.066126155
2.4074845e-14
0.094404321
-2.3205845e-14
0.12439158
0
0.15421745
0
0.18558534
0
0.22009332
0
0.25715531
0
0.29579073
0
0.33615558
-3.5735877e-14
0.37855547
0
0.42296448
-3.3154041e-14
0.46926466
-3.1922752e-14
0.51704766
6.1494964e-14
0.56632942
5.9248359e-14
0.61812338
-5.7071731e-14
0.67419577
2.6960671e-14
0.0189013
1.3334659e-17
0.03934078
-2.5007432e-14
0.062233336
1.3938506e-17
0.089035632
-1.3139142e-17
0.11749433
-2.2357243e-14
0.14550444
0
0.17481208
0
0.20719383
0
0.24212605
0
0.27855022
0
0.31646665
0
0.35623893
0
0.39787782
0
0.44151224
-3.1945201e-14
0.48699896
0
0.53377744
0
0.5821634
0
0.6332953
0
0.68900527
0
0.017736556
-2.5965549e-14
0.036973374
0
0.058522447
2.4075374e-14
0.08390516
-2.3194226e-14
0.11088539
0
0.13715697
0
0.16450595
0
0.19490476
0
0.22787298
3.8512995e-14
0.2622942
0
0.29807009
0
0.33552228
0
0.37458346
3.3179669e-14
0.41538839
0
0.45831969
-9.3469166e-18
0.50299129
0
0.54889054
0
0.59647715
-5.4987298e-14
0.64706905
5.2967196e-14
0.70239482
0
0.016630087
0
0.034718737
-2.4994189e-14
0.054994784
0
0.079015067
0
0.10456232
-2.2359195e-14
0.12917676
-9.8291143e-18
0.15466698
-2.0756376e-14
0.18320203
0
0.21433557
0
0.24689606
0
0.28076482
0
0.3160998
0
0.35281614
0
0.39103139
-3.19721e-14
0.43121129
0
0.473541
-8.4685712e-18
0.51746598
2.8556921e-14
0.56251426
5.5007159e-14
0.60938789
0
0.65954899
-5.1044675e-14
0.71469757
0
0.015584129
0
0.032582214
-2.5007481e-14
0.05165061
0
0.074360054
0
0.098523634
2.2348875e-14
0.12156068
2.1533719e-14
0.14529445
4.1496404e-14
0.17207388
-2.0001397e-14
0.20148817
-1.9263091e-14
0.23227032
0
0.26435193
0
0.29776921
-3.4470574e-14
0.33232855
0
0.36820105
0
0.40583519
0
0.44556729
-2.9664962e-14
0.48733741
5.7141477e-14
0.53054282
-2.7522735e-14
0.57479428
0
0.62102846
0
0.67087684
0
0.72586354
1.3480571e-14
0.014599693
0
0.030562734
0
0.048487704
0
0.069932763
0
0.092758621
-2.2360289e-14
0.11430633
0
0.13638865
-2.074961e-14
0.16151457
3.9997097e-14
0.18931121
-1.9274763e-14
0.2183861
0
0.24875749
0
0.2804305
0
0.31303301
0
0.34670407
0
0.38207531
-3.0814183e-14
0.41939406
0
0.45867248
7.8692605e-18
0.49990421
-6.9524195e-18
0.54237085
-2.651315e-14
0.58582238
5.1067953e-14
0.63150764
0
0.6811545
0
0.73611852
0
0.013675861
6.812612e-18
0.028658306
2.5007188e-14
0.045501328
0
0.065725603
0
0.087260867
0
0.10740964
9.3560651e-18
0.12794601
-2.0760536e-14
0.15151405
9.8953487e-18
0.17778872
-9.0285982e-18
0.20522257
0
0.23393545
-1.7891297e-14
0.26398201
0
0.29483754
0
0.32652047
3.2003326e-14
0.3597798
0
0.3949519
0
0.43187246
0
0.47072112
7.199009e-18
0.51134617
-2.6534055e-14
0.5530242
5.4211639e-18
0.59572467
-4.9215177e-14
0.64094045
0
0.69045793
4.5648859e-14
0.74541221
1.3473499e-14
0.012810661
-1.2982445e-14
0.026865965
-1.2496703e-14
0.042684383
0
0.061733777
0
0.082023489
-2.2360784e-14
0.1008635
0
0.11996191
2.0761455e-14
0.1420612
1.9996672e-14
0.1669012
0
0.19276289
-8.3058156e-18
0.21986254
1.7894865e-14
0.24835732
6.7894521e-18
0.27762006
0
0.30753105
0
0.33879496
6.1696691e-14
0.37201027
0
0.40694802
0
0.44346837
2.756209e-14
0.48180944
0
0.52175984
2.5556079e-14
0.5626165
0
0.60458638
0
0.64938276
0
0.69888193
4.398388e-14
0.75394526
0
0.012001515
0
0.025182072
0
0.040029563
1.2044866e-14
0.057951027
-2.3208856e-14
0.077040758
0
0.094659991
2.1536406e-14
0.11242866
0
0.1331412
0
0.15662708
-9.1384264e-18
0.18098846
-1.8580817e-14
0.20652011
3.5803792e-14
0.23351984
-1.7254451e-14
0.26128536
0
0.28958967
0
0.31905868
0
0.35044123
-2.9735506e-14
0.38361748
0
0.41817243
0
0.45423454
-2.6567462e-14
0.49200921
-2.5578071e-14
0.53119218
2.4630903e-14
0.57122827
0
0.61248273
0
0.65694565
0
0.70649419
-4.2386677e-14
0.76170104
-1.3480624e-14
0.011245018
6.8714206e-18
0.023601483
0
0.037530411
-1.2044842e-14
0.054371125
-1.1597457e-14
0.072309222
0
0.088787881
-2.154568e-14
0.10533365
2.0753043e-14
0.12473837
0
0.14693922
0
0.16987247
0
0.19389205
1.7908624e-14
0.21944547
1.7251105e-14
0.24577573
-1.6630527e-14
0.27259205
0
0.30045362
0
0.33008209
0
0.36159075
-2.8658521e-14
0.39452131
0
0.4286606
2.6585065e-14
0.46423415
0
0.50134739
0
0.53975358
-4.5753317e-18
0.57891839
2.2854358e-14
0.61949928
0
0.6636866
0
0.71339245
-4.0841054e-14
0.76881939
1.3480654e-14
0.010538384
-1.2982165e-14
0.022118716
1.2503238e-14
0.035180529
1.2044825e-14
0.050988339
2.3194844e-14
0.067824591
-1.116989e-14
0.083237106
0
0.09865984
0
0.11683217
-2.0009862e-14
0.13780766
0
0.15938693
-1.8576327e-14
0.18195525
0
0.20611289
0
0.23106148
-1.6634572e-14
0.25645439
-5.4383959e-18
0.28283062
3.0887199e-14
0.31083316
0
0.34069649
0
0.37215994
-2.7620655e-14
0.40475897
0
0.4384572
0
0.47348205
0
0.50991482
0
0.54745036
4.5738975e-14
0.58576473
0
0.62570819
0
0.66970757
0
0.71961201
0
0.77528544
0
0.0098785804
0
0.020729273
-6.8772742e-18
0.032974536
-1.2037347e-14
0.047797317
0
0.063582435
0
0.077998799
1.0772927e-14
0.092390346
0
0.10940334
0
0.12920392
-9.266295e-18
0.14949827
0
0.1706833
1.7913218e-14
0.19350086
0
0.21711576
0
0.24113418
-1.603444e-14
0.26611501
-1.5451643e-14
0.2926296
-1.4883726e-14
0.32089197
0
0.35084597
-2.7637203e-14
0.38210957
0
0.41433152
-2.5631029e-14
0.44756275
-2.4689521e-14
0.4820289
0
0.51770309
4.4675097e-18
0.55437115
2.2036548e-14
0.59182417
-4.2441002e-14
0.63119014
0
0.67503942
0
0.72523901
3.791295e-14
0.78120951
0
0.0092576899
1.2982084e-14
0.019428193
0
0.030903769
1.2037344e-14
0.044792735
1.1604338e-14
0.059576568
-5.2374617e-18
0.073063589
-1.0772939e-14
0.086506713
0
0.10243095
2.0000543e-14
0.12110002
1.9276202e-14
0.14017653
0
0.1600464
0
0.181582
1.72665e-14
0.20391587
0
0.22660078
0
0.25024334
1.545132e-14
0.27538623
-5.0601874e-18
0.3021444
0
0.33052305
0
0.3604008
0
0.39139819
-2.5656125e-14
0.42320745
0
0.45599052
0
0.48986
0
0.52475692
-2.2053295e-14
0.56052802
-3.2192277e-18
0.59718107
-2.0445877e-14
0.63599004
-3.9382314e-14
0.67977671
0
0.73030655
0
0.78660327
4.2644996e-05
0.010174576
1.2974948e-14
0.018202966
0
0.028960933
-2.4089703e-14
0.041963601
-6.9587183e-18
0.055799371
5.2248846e-18
0.068418821
0
0.080989025
-1.0382057e-14
0.095891372
-1.0000471e-14
0.11346876
0
0.13138934
-1.8580147e-14
0.1500165
-8.171042e-18
0.17032972
0
0.19143579
0
0.21282907
-5.565608e-18
0.23517741
1.5455706e-14
0.2590291
2.9789814e-14
0.28439005
-1.4357999e-14
0.31122548
0
0.3395836
0
0.36932572
0
0.40000309
2.4720009e-14
0.43142122
-2.3805832e-14
0.46373401
2.292305e-14
0.49698407
-2.2075731e-14
0.53109388
2.1254069e-14
0.56602651
-2.0463296e-14
0.60186541
-2.2669379e-18
0.64019361
0
0.68396918
0
0.73490615
0
0.79154115
7.1899433e-05
0.010173084
0.00012193211
0.019840139
0
0.027133476
0
0.039299827
0
0.052241059
-2.2360635e-14
0.064052103
0
0.075816364
-2.0759448e-14
0.089761667
-5.3947871e-18
0.10628714
0
0.12310954
1.8581016e-14
0.14056608
0
0.15971374
-7.4151735e-18
0.17964937
-1.6646412e-14
0.19979609
-1.6039581e-14
0.22088842
1.5459613e-14
0.24350966
1.4904897e-14
0.26756688
-1.4363793e-14
0.29294898
1.3836172e-14
0.31975803
1.333477e-14
0.34808759
0
0.37761444
0
0.4079304
0
0.43895778
0
0.47080175
0
0.50343347
2.1268473e-14
0.53680184
0
0.57087182
-2.4767619e-18
0.60596706
-1.8985249e-14
0.64386297
-3.518935e-18
0.68770412
0
0.73906403
3.3920457e-14
0.79603613
8.9201657e-05
0.010173348
0.00020553023
0.019882559
0.00019409117
0.029345066
0
0.036787983
0
0.048890954
0
0.059951678
1.0768577e-14
0.070972889
4.8541181e-18
0.084019701
2.0006973e-14
0.099533881
-9.6435535e-15
0.11530749
-9.2908637e-15
0.13166649
0
0.14970678
0
0.16852693
0
0.18747528
1.6047921e-14
0.20735443
0
0.22879612
0
0.25161393
1.4369044e-14
0.27563563
1.3842392e-14
0.30095145
-1.334202e-14
0.3277645
-1.2849671e-14
0.35600384
0
0.38524484
0
0.41520052
0
0.44585723
0
0.47722483
0
0.50927372
-3.5704428e-18
0.5419036
-1.9731341e-14
0.57516176
-1.8999323e-14
0.60953236
3.6585429e-14
0.64707484
3.5229726e-14
0.69103961
3.3934332e-14
0.74285767
3.2686273e-14
0.8001406
9.600251e-05
0.010177907
0.0002549174
0.019920494
0.00032714283
0.029486511
0.00026360746
0.039442478
0
0.045721456
0
0.056104535
0
0.066437564
-1.0382298e-14
0.078642279
-1.0000897e-14
0.093187072
0
0.10795667
0
0.12328554
-8.9557392e-15
0.1402781
1.7273064e-14
0.15803874
0
0.17584027
0
0.1945496
0
0.21486014
-1.4907782e-14
0.23649605
1.4368831e-14
0.25922337
0
0.28312506
0
0.30844764
0
0.33530972
0
0.3633592
0
0.39223155
0
0.42185706
0
0.45212821
0
0.48304997
4.1031097e-14
0.51453837
-1.9755332e-14
0.54646206
2.4952897e-18
0.57891841
-3.6612505e-14
0.61264322
0
0.64989851
0
0.69405225
0
0.74630504
0
0.80388136
9.3771848e-05
0.010186341
0.00027425323
0.019959624
0.00040566632
0.029608772
0.00044410544
0.039685135
0.00032756381
0.048606431
0
0.052471052
0
0.062191564
0
0.073606577
1.0001007e-14
0.087221213
4.6290694e-18
0.10103317
9.2913849e-15
0.11539412
-8.9603e-15
0.13140035
0
0.14815618
0
0.16486282
0
0.18244718
1.5468801e-14
0.20167632
0
0.22218148
1.4378004e-14
0.2436692
0
0.26623354
1.3354765e-14
0.29014048
-1.2868451e-14
0.31557845
1.2394221e-14
0.34236374
1.1942799e-14
0.37008996
0
0.39861457
0
0.42790464
-2.1331615e-14
0.45782354
0
0.48831544
-1.976767e-14
0.51926862
1.9030163e-14
0.5505163
1.8322812e-14
0.58223293
-1.6233854e-18
0.61534082
-1.6984046e-14
0.65240811
3.2711816e-14
0.69678934
-3.1509823e-14
0.74947381
3.0352338e-14
0.80728527
8.3998436e-05
0.010198475
0.00026776906
0.019999269
0.00043628578
0.029718803
0.00055026708
0.039889341
0.00055120068
0.048970555
0.00037566359
0.055388779
1.0768431e-14
0.058193951
0
0.068891806
0
0.081616353
9.6347009e-15
0.09451492
-9.2915757e-15
0.10796759
-8.9563716e-15
0.12304436
2.5908581e-14
0.13885064
3.0713802e-18
0.15451651
1.6048641e-14
0.17102187
0
0.18921671
-1.4919656e-14
0.20864198
1.4381772e-14
0.22894069
4.5286645e-18
0.25022221
1.3356027e-14
0.2727805
0
0.2968217
-3.8218077e-18
0.32229068
-3.4919849e-18
0.34886455
0
0.37623784
0
0.40442009
0
0.43341417
-2.0557555e-14
0.46298625
0
0.49306416
-1.9051785e-14
0.52351831
1.8337451e-14
0.55413913
0
0.58512147
1.699649e-14
0.6177029
-1.6367036e-14
0.65466296
0
0.69930369
0
0.75236034
0
0.81037442
6.8196971e-05
0.010214263
0.00023976458
0.02003946
0.00042576933
0.029815548
0.0005912983
0.040062078
0.00068224622
0.049270307
0.00063185241
0.055945098
0.00040847036
0.061045609
0
0.064461753
0
0.076351154
0
0.088382779
-4.0850462e-18
0.10098121
4.2911573e-18
0.11518518
0
0.13009277
0
0.14477215
2.7651793e-18
0.16024804
0
0.17745612
-1.4922332e-14
0.1958476
0
0.21500581
0
0.2350546
0
0.25632701
0
0.27903466
0
0.30316906
-3.5765096e-18
0.32853931
0
0.35482815
1.109618e-14
0.38183981
0
0.40971238
0
0.43843016
0
0.46767025
0
0.4973486
0
0.52734387
0
0.55736041
1.7257866e-18
0.58766287
-1.637899e-14
0.61978059
-1.5770357e-14
0.65670931
0
0.70161168
0
0.75501462
0
0.81315784
4.789302e-05
0.010233573
0.00019457594
0.02008046
0.00038099965
0.029899081
0.00057646055
0.040203935
0.00073230508
0.049523178
0.00078182025
0.056416356
0.00068747801
0.061855845
0.00043680076
0.067174216
0
0.071387283
0
0.08261693
0
0.094412439
-4.3280722e-18
0.107793
8.6381606e-15
0.12185282
0
0.13560153
8.0258092e-15
0.15009902
7.7404427e-15
0.16636554
0
0.18377179
0
0.20183507
0
0.22069971
0
0.24074027
0
0.26218336
-1.2418854e-14
0.28502128
0
0.30912144
-3.3139267e-18
0.33431163
1.1102371e-14
0.36028216
0
0.38693899
0
0.41456253
0
0.44302412
1.9088068e-14
0.47191063
0
0.50121305
0
0.53078189
0
0.56022846
-1.6391404e-14
0.58988871
1.5781677e-14
0.62162664
0
0.65858015
0
0.70375509
2.1221101e-18
0.75741058
-2.1891342e-18
0.81566541
2.4638289e-05
0.010256274
0.00013658419
0.020121941
0.0003089597
0.029969909
0.00051531012
0.040315233
0.00071319012
0.049730103
0.00083901668
0.056827902
0.00085118592
0.062560958
0.00073564786
0.068237979
0.00046615857
0.073835617
0
0.077174438
0
0.088241102
0
0.10084284
-4.012392e-18
0.11409892
3.0216017e-18
0.12697569
0
0.14054611
0
0.15591777
0
0.17238518
0
0.18939903
-1.3873168e-14
0.20712615
1.3369375e-14
0.2259889
0
0.24622797
0
0.26782891
-1.197343e-14
0.2906584
1.1533398e-14
0.31465198
-1.1117113e-14
0.3396218
-2.6992804e-18
0.36526075
0
0.39164377
0
0.41904578
0
0.44721886
-1.839777e-14
0.47575496
0
0.50469434
1.7043746e-14
0.53386101
-1.8542743e-18
0.56278047
0
0.59186131
-9.5236325e-19
0.62327451
-1.4644972e-14
0.66031358
0
0.70571698
0
0.75959433
0
0.81789007
0.010282013
0
7.0231885e-05
0.020163553
0.00021670338
0.030028343
0.00041738276
0.040396644
0.00063689528
0.049891396
0.00081704164
0.057178208
0.00091414076
0.063185408
0.00091137614
0.069169735
0.00078479151
0.075090781
0.00049084357
0.079236415
0
0.082430653
0
0.094311077
0
0.10680599
0
0.11886741
2.7042565e-18
0.13156399
-7.7419679e-15
0.14608216
-1.492851e-14
0.16165509
2.5606955e-18
0.17766834
0
0.19430305
0
0.21203747
0
0.23112918
0
0.25156017
1.1979602e-14
0.27316436
0
0.29591899
3.3360542e-14
0.31978709
0
0.34452091
1.0316121e-14
0.36988051
0
0.39601658
0
0.42318678
0
0.45105962
0
0.47923205
0
0.50781618
0
0.53662448
0
0.56506505
0
0.59360239
-8.5242454e-19
0.62476684
0
0.66191927
0
0.70752874
0
0.76152849
0
0.81986142
0.020205281
0
0.01031043
-2.4774652e-05
0.00011132331
0.030073653
0.00029239457
0.040448717
0.00051537259
0.050007576
0.00072959108
0.057465442
0.00089084412
0.06372444
0.00097920144
0.069982821
0.00097173238
0.076170055
0.0008254761
0.080680407
0.00050817378
0.084124889
0
0.088156976
0
0.099946857
0
0.11125085
-2.6853848e-18
0.12312684
-7.7394507e-15
0.13683149
0
0.15154958
-7.1948451e-15
0.16661003
2.1783778e-18
0.18220055
0
0.19885424
0
0.21685021
0
0.23617112
1.1981433e-14
0.25661237
0
0.27815754
-3.2360704e-18
0.30085721
2.9807791e-18
0.32460095
0
0.34908415
-2.3182581e-18
0.3741612
2.0601922e-18
0.40008423
0
0.42701243
0
0.45456638
1.7081259e-14
0.48236769
0
0.51061737
0
0.53910512
0
0.56710872
0
0.59516181
-1.4122136e-14
0.62614748
0
0.66341955
2.6196006e-14
0.70913952
0
0.76325245
-2.431491e-14
0.82156775
0.030105133
0
0.020248111
-7.0560582e-05
0.010341844
-4.8427372e-05
0.00015001351
0.040471911
0.00036070254
0.050078892
0.00059040933
0.057688662
0.00079603246
0.064174805
0.000954546
0.070674619
0.0010433219
0.077090487
0.0010210218
0.081907218
0.00085446228
0.085867642
0.00052407228
0.089499739
0
0.093469264
0
0.1040996
0
0.11520694
7.7399481e-15
0.12813219
-7.4625971e-15
0.14203915
0
0.15619354
-6.9403007e-15
0.17079074
6.6913633e-15
0.18641076
0
0.2033557
0
0.22162155
1.1986418e-14
0.24095826
0
0.26134779
1.1133584e-14
0.28288745
-1.0730562e-14
0.30553924
-1.0334178e-14
0.32910433
-9.958237e-15
0.35331937
9.58463e-15
0.37815991
9.2299148e-15
0.40387177
0
0.43055803
-1.7104041e-14
0.4577658
-1.6462158e-14
0.48518485
0
0.51312042
0
0.54133313
1.467923e-14
0.56894067
0
0.59658799
-7.3654292e-19
0.62744219
1.3105089e-14
0.66478101
2.5245305e-14
0.71058215
0
0.76473092
0
0.82304937
0.040465512
0
0.030125464
-0.00011160333
0.020292285
-0.00013787038
0.010376875
-6.934629e-05
0.00018490336
0.050106269
0.00041324642
0.057847298
0.00064459404
0.064533775
0.00085321996
0.071243334
0.0010163373
0.077854048
0.0010950321
0.082949276
0.0010566706
0.087377083
0.00088193867
0.091625407
0.00053843359
0.094370582
0
0.097348922
0
0.1077784
0
0.11995407
-3.1612557e-18
0.13308759
2.5722586e-18
0.14638717
-6.9412391e-15
0.16004353
1.3383053e-14
0.17467929
6.4546527e-15
0.19061666
0
0.20787384
0
0.22615775
1.1558367e-14
0.24544418
0
0.26586498
3.1806168e-18
0.28741007
1.0342484e-14
0.30997708
-9.9650425e-15
0.33331233
0
0.35725303
9.2381249e-15
0.38190354
8.8954014e-15
0.40743392
1.7124633e-14
0.43383293
0
0.46066947
-1.5862816e-14
0.48770651
0
0.51535533
0
0.54332129
-1.4146186e-14
0.57060098
1.361934e-14
0.59792001
-6.981087e-19
0.62865521
0
0.6660269
-2.4330736e-14
0.71182486
2.3438259e-14
0.76601616
0
0.82429501
0.050089227
0
0.040435588
-0.00014997318
0.03013497
-0.00021779995
0.02033736
-0.0001973439
0.010415492
-8.589266e-05
0.00021186886
0.057941018
0.00045146364
0.064800226
0.00069103719
0.071688729
0.00090771646
0.07846407
0.0010655845
0.083809327
0.0011332199
0.088674014
0.0010914977
0.093488621
0.00090657245
0.096822514
0.00054553761
0.097733677
0
0.10078854
0
0.11226696
0
0.12466337
0
0.13715908
2.0755847e-18
0.14992687
0
0.16362972
-6.4538785e-15
0.17860316
-6.2206524e-15
0.19489717
0
0.21217392
0
0.23039965
0
0.24975361
0
0.27022537
1.0353252e-14
0.29172521
-9.9738343e-15
0.31411085
2.4064079e-18
0.33718644
-9.2501816e-15
0.36093449
8.9038082e-15
0.38544456
0
0.41075467
0
0.43684293
0
0.46329079
-1.5285094e-14
0.48995417
0
0.51733118
0
0.54510481
-1.3631361e-14
0.57212332
0
0.59917473
-1.2637874e-14
0.62980272
0
0.66714026
-2.344845e-14
0.71290863
0
0.76708162
0
0.82534332
0.057968775
0
0.050039448
-0.00018457814
0.04038291
-0.00029224617
0.030130788
-0.00031131682
0.020383814
-0.00024434235
0.01045775
-9.6425131e-05
0.0002315923
0.064972484
0.00048406021
0.072009948
0.00073463364
0.078923416
0.00095081378
0.084493328
0.0011026299
0.089759288
0.0011713831
0.095101365
0.0011226781
0.098974542
0.00091864173
0.1004728
0.00054626175
0.10065134
0
0.10502178
0
0.11673419
0
0.12847739
-6.9427587e-15
0.14040985
0
0.15323039
0
0.16728653
-6.2241508e-15
0.18266038
-1.1998328e-14
0.1989734
0
0.21617737
-1.1154289e-14
0.23450406
0
0.25394386
0
0.27437129
9.9820388e-15
0.29572351
-9.6152858e-15
0.31791343
0
0.3407948
-2.0059583e-18
0.36440831
8.5812532e-15
0.38877105
1.5860223e-18
0.41383395
1.5899394e-14
0.43957984
0
0.46564715
0
0.49193944
0
0.51908137
0
0.54670234
0
0.57352876
0
0.60037022
-6.5106488e-19
0.63088671
0
0.66814581
0
0.71379573
-2.1771173e-14
0.76796925
-2.0979222e-14
0.82617689
0.065047679
0
0.057946727
-0.00021158707
0.049958164
-0.00035944956
0.040302668
-0.00041708325
0.030112075
-0.00038488102
0.020432112
-0.00027420377
0.010503991
-9.92734e-05
0.00024833081
0.072206581
0.00051420858
0.079235468
0.00076883235
0.08500601
0.0009838247
0.090636226
0.0011405616
0.096463536
0.0012055498
0.10084637
0.0011378736
0.10287863
0.00092012121
0.10370162
0.00054726706
0.104364
-7.464109e-15
0.10924199
0
0.12031221
0
0.13146559
-6.6970699e-15
0.14345071
6.4559169e-15
0.15663504
-6.2232441e-15
0.17113131
0
0.18652453
1.8283477e-18
0.20274281
0
0.2200762
0
0.23852965
0
0.25792184
9.9867828e-15
0.27818896
0
0.29939643
0
0.3214582
0
0.34420982
-8.5952074e-15
0.36769413
-8.271768e-15
0.39186981
-7.9597353e-15
0.41665147
0
0.4420693
0
0.46774571
1.4190121e-14
0.4936876
0
0.5206172
-1.3147787e-14
0.54814035
-9.0702197e-19
0.57482356
0
0.60151613
-6.3757778e-19
0.63192036
-1.1304262e-14
0.66899789
2.1779122e-14
0.71452379
0
0.76865827
0
0.82683831
0.072275924
0
0.065045615
-0.00023150138
0.057875735
-0.00041216276
0.049836746
-0.00051274482
0.040194496
-0.00051480829
0.030078805
-0.00043119627
0.020481942
-0.00028220513
0.010553999
-9.2754466e-05
0.00026362954
0.079402934
0.00053776936
0.085352935
0.00079550552
0.091306607
0.0010183486
0.097574299
0.0011745193
0.10243489
0.0012220772
0.10498435
0.0011400194
0.106405
0.0009224349
0.10777557
0.00054965305
0.10802554
0
0.11259468
0
0.12306795
0
0.13426446
1.2909475e-14
0.14662182
2.1684872e-18
0.16027739
-6.0040888e-15
0.1747931
0
0.19006385
-5.5797602e-15
0.20643646
0
0.22393938
0
0.24234822
-9.9966008e-15
0.26154706
-9.629229e-15
0.28167247
2.4279186e-18
0.30285073
0
0.32483195
0
0.34742681
8.280247e-15
0.37076294
-1.5727745e-18
0.39473293
1.3396735e-18
0.41923605
0
0.44430575
0
0.46961043
-1.3030702e-18
0.49521407
0
0.52196828
0
0.54941721
-1.219744e-14
0.57602586
-1.1744336e-14
0.60262347
-6.0092412e-19
0.63286291
-1.0895059e-14
0.66972575
0
0.71508325
0
0.76919353
0
0.82730831
0.079427516
0
0.072244321
-0.00024820925
0.064966587
-0.00045111725
0.057741173
-0.000588145
0.049676935
-0.00063263838
0.040058065
-0.0005757564
0.030030504
-0.00044294525
0.020532789
-0.00026358238
0.010608072
-7.5180115e-05
0.0002755415
0.085538393
0.00055643151
0.091771775
0.00082387907
0.098433334
0.0010490472
0.10373624
0.0011908575
0.10678128
0.0012248506
0.1087808
0.0011433925
0.11080972
0.00092660156
0.11176885
0.00054869341
0.11077873
6.9440409e-15
0.11514494
0
0.12564459
6.4574486e-15
0.13721605
-2.1958383e-18
0.15007095
6.0052939e-15
0.16374698
-5.7888109e-15
0.17810957
-1.8118858e-18
0.19355215
1.8113067e-18
0.21013711
0
0.2276082
0
0.24579064
0
0.26481133
0
0.28494516
8.9445814e-15
0.30616065
-8.6131101e-15
0.32803495
-8.2902467e-15
0.35045812
-7.9816659e-15
0.37362229
-1.4475918e-18
0.39736792
-7.3911403e-15
0.42157498
0
0.44631473
0
0.47125214
0
0.49654522
0
0.52313469
0
0.55056032
1.1753387e-14
0.57714104
0
0.6036697
-5.732373e-19
0.63373093
0
0.6703129
-2.0231536e-14
0.71551003
0
0.76955587
1.8784943e-14
0.82762605
0.08556429
0
0.079345054
-0.00026323356
0.072112541
-0.00048359297
0.064790843
-0.00064387293
0.057545737
-0.00072597006
0.049479449
-0.00070737936
0.039893524
-0.00059041024
0.0299682
-0.00041290198
0.020585226
-0.00021355775
0.010666622
-4.4836598e-05
0.00028510611
0.092033957
0.00057649606
0.099038809
0.00084905296
0.10474786
0.0010639272
0.1082609
0.0011940141
0.11081672
0.0012290741
0.11347452
0.001148961
0.11509376
0.00092499538
0.11479558
0.00054295653
0.11271808
0
0.11752177
0
0.12838827
-6.2282093e-15
0.14047814
-2.0873801e-18
0.15335411
1.8352078e-18
0.16684964
-5.5831861e-15
0.18139467
0
0.19708942
1.7263995e-18
0.21366009
0
0.2308811
9.6432756e-15
0.24883612
9.291808e-15
0.26785146
0
0.28813838
0
0.30934581
0
0.33103715
1.5981809e-14
0.35328499
-1.5428664e-18
0.37626589
0
0.3997723
0
0.42368794
0
0.44809745
0
0.47269957
1.2694949e-14
0.49768576
0
0.52414669
0
0.55156816
-1.1327123e-14
0.57817299
-1.0907435e-14
0.60465722
1.0505586e-14
0.63448382
0
0.67078703
-2.6556255e-19
0.71578201
0
0.76979629
0
0.82776599
0.092093414
0
0.085474414
-0.00027496627
0.079156552
-0.00051267382
0.071854393
-0.00069004028
0.064518693
-0.00079486289
0.057291409
-0.00081217534
0.049245218
-0.00072532195
0.039703757
-0.00054937004
0.029888266
-0.00033376801
0.02064045
-0.00012731945
0.010726753
0
0.00029547016
0.099389988
0.00059427728
0.10546831
0.00086126042
0.10941695
0.0010671225
0.11250383
0.0011985943
0.11576072
0.001235232
0.11801252
0.0011468538
0.11835231
0.00091515235
0.11697533
0.00053474579
0.11448661
0
0.12007776
0
0.13146518
0
0.1435824
-1.8333944e-18
0.15625341
0
0.16993652
0
0.18476863
0
0.20047057
5.0069696e-15
0.216773
0
0.23372709
-9.2989086e-15
0.25164423
8.9589144e-15
0.27082905
0
0.29120445
8.3115255e-15
0.31231654
7.9998379e-15
0.33384146
0
0.35591372
7.4108349e-15
0.37869054
0
0.4019458
6.8634365e-15
0.42557719
0
0.44969046
1.2711013e-14
0.47395602
0
0.49866282
1.1774675e-14
0.52500587
2.2672273e-14
0.55246359
0
0.57910576
5.8635582e-19
0.60554448
-4.6087437e-19
0.63514215
0
0.67111391
0
0.71595537
0
0.76989318
-1.7452611e-14
0.82772872
0.099484982
0
0.092001361
-0.00028452255
0.085267886
-0.00053552272
0.078828348
-0.00073136445
0.071469875
-0.00085152358
0.064150545
-0.00088924711
0.056978551
-0.00083326971
0.048975771
-0.00067495738
0.039485453
-0.0004432267
0.029790756
-0.00019849719
0.020690013
0
0.009813033
0
0.00030464335
0.10589608
0.00060292494
0.11024529
0.00086409971
0.11383235
0.0010716331
0.11766051
0.0012048403
0.12051531
0.0012329325
0.12147659
0.0011344306
0.12074167
0.00090113764
0.11899323
0.00052634328
0.11644411
0
0.12296927
0
0.13439803
0
0.14629049
0
0.15914841
1.9159313e-18
0.17314855
-5.1940001e-15
0.1880091
-5.009306e-15
0.20343163
0
0.21943579
9.3053911e-15
0.23631076
0
0.25437177
0
0.27371603
8.3184776e-15
0.29409363
8.0113445e-15
0.31508177
0
0.33645334
0
0.35833374
0
0.38089051
0
0.40390783
6.6131366e-15
0.42727897
1.2725595e-14
0.45109362
0
0.47505145
0
0.49948617
0
0.52573985
0
0.5532266
-1.0519652e-14
0.57993746
1.0131489e-14
0.6063404
-9.7589646e-15
0.63566132
-1.8802377e-14
0.67134433
1.8115715e-14
0.71602454
0
0.76980505
0.0075329009
0.81996255
0.1060273
0
0.099380802
-0.00029486526
0.091758425
-0.00055414936
0.084903303
-0.00076404238
0.078362348
-0.00090236074
0.070957917
-0.00095208122
0.063685055
-0.00091216481
0.056607521
-0.00077589134
0.048672356
-0.00054470207
0.039236311
-0.00026301258
0.029665706
0
0.019065833
0
0.010528228
0
0.00030912518
0.11074386
0.00060507994
0.11479453
0.00086808158
0.11916641
0.0010773847
0.12259399
0.0012025366
0.12415658
0.0012194494
0.12405099
0.0011169173
0.12298436
0.00088713266
0.12122725
0.00051916043
0.11872491
0
0.1257251
0
0.13693057
0
0.14900066
-5.3898412e-15
0.16219985
-5.1956781e-15
0.1762504
-5.0098162e-15
0.19082472
-4.8312302e-15
0.20592274
4.6567877e-15
0.22182044
0
0.23881664
0
0.25704847
0
0.27644662
-8.0206238e-15
0.29677254
-7.719762e-15
0.31766597
-1.6165691e-18
0.33887177
0
0.36054568
-6.8823454e-15
0.38288481
-9.7806499e-19
0.40567625
6.3718617e-15
0.42879765
0
0.45233629
0
0.4759904
-1.1358312e-14
0.50017978
0
0.52633726
4.1783944e-19
0.55388518
-4.3256924e-19
0.58066032
-9.7640254e-15
0.6070134
9.4055459e-15
0.63607853
-1.8122818e-14
0.67147147
0
0.71592868
0.014456758
0.76249762
0.0068580565
0.81273391
0.11090962
0
0.10592422
-0.00030402923
0.099078623
-0.00057414241
0.091316777
-0.00079064424
0.08437726
-0.00094293888
0.077758448
-0.0010088836
0.070319066
-0.00097597664
0.063127727
-0.00084908337
0.056178105
-0.00062665366
0.048332782
-0.00032339557
0.038949063
0
0.027441652
0
0.020432742
0
0.011293526
1.3491545e-14
0.00031028653
0.11538584
0.00060806932
0.12026974
0.0008728904
0.12424133
0.001075259
0.12638068
0.0011892721
0.12689108
0.0012004801
0.1264889
0.0010996856
0.12547207
0.0008749892
0.12378915
0.0005121071
0.1208695
0
0.12809805
0
0.13946219
0
0.15188808
5.1971534e-15
0.16515998
5.013232e-15
0.17892503
-4.8334559e-15
0.19315653
-4.6594326e-15
0.20812651
0
0.22412731
0
0.24128736
8.3373292e-15
0.25959817
-2.0487652e-18
0.2790105
0
0.29929894
1.4882104e-14
0.32007141
0
0.34110246
0
0.36256076
-6.6314192e-15
0.38468786
0
0.4072725
0
0.4301538
0
0.45341848
0
0.47679989
0
0.50073817
0
0.52682697
0
0.55442335
0
0.58128264
3.6905206e-19
0.60757011
0
0.63636445
0
0.67146667
0.020933207
0.70904893
0.013159825
0.75567203
0.0061364436
0.80609203
0.11560306
0
0.11081446
-0.00030856048
0.10558603
-0.00059187816
0.098523153
-0.00081886273
0.090672916
-0.00097575096
0.0836856
-0.0010546228
0.077017298
-0.0010342264
0.069554796
-0.00090772788
0.062478359
-0.0006854717
0.055690043
-0.00037236903
0.047940576
1.1598908e-14
0.036283386
0
0.02930062
0
0.021883014
1.2985445e-14
0.012117585
1.347644e-14
0.00031190975
0.12096433
0.00061153905
0.12545048
0.00087111824
0.12813838
0.0010632722