/*--------------------------------*- C++ -*----------------------------------*\
| =========                 |                                                 |
| \\      /  F ield         | OpenFOAM: The Open Source CFD Toolbox           |
|  \\    /   O peration     | Version:  v2012                                 |
|   \\  /    A nd           | Website:  www.openfoam.com                      |
|    \\/     M anipulation  |                                                 |
\*---------------------------------------------------------------------------*/
FoamFile
{
    version     2.0;
    format      ascii;
    class       volScalarField;
    location    "63.7469491763794949";
    object      p;
}
// * * * * * * * * * * * * * * * * * * * * * * * * * * * * * * * * * * * * * //

dimensions      [0 2 -2 0 0 0 0];


internalField   nonuniform List<scalar> 
9200
(
0.0018507367
0.0019049383
0.0044534838
0.0018477774
0.004911891
0.0069868599
0.0018486493
0.0054911246
0.0075161654
0.0088702633
0.0017935004
0.006360738
0.0082376184
0.0095315719
0.010380874
0.0017316807
0.0073728297
0.0092719595
0.010505644
0.011148328
0.011362977
0.0016654924
0.0084718479
0.010500468
0.011854295
0.012322921
0.012232865
0.01184616
0.0015975139
0.0096368904
0.011805407
0.013497611
0.013931142
0.013603167
0.012801306
0.011814797
0.0015557779
0.010777054
0.01318401
0.015255573
0.015926214
0.015477899
0.014339442
0.012832993
0.011289953
0.0015355262
0.011879754
0.014510566
0.017133392
0.018090863
0.017840662
0.016451375
0.014506265
0.012343229
0.010301725
0.0015610053
0.012894491
0.015766274
0.018966901
0.020441633
0.020454574
0.019151349
0.016813147
0.014108617
0.011357752
0.008894249
0.0016585811
0.013820189
0.016876801
0.020716032
0.022795039
0.023353095
0.022196822
0.019800677
0.016549775
0.013165959
0.0099191091
0.0071217661
0.0018753665
0.01464066
0.017802212
0.02226925
0.025106504
0.026348588
0.025646411
0.023229618
0.019747991
0.01566798
0.011717049
0.0080815964
0.0050443571
0.0022597822
0.015357187
0.018506495
0.023542877
0.027243092
0.029401637
0.029324086
0.027186529
0.023470343
0.018980741
0.014199422
0.009815878
0.0059078294
0.0027265508
0.0028573752
0.015981065
0.018965404
0.024469328
0.029112236
0.032370384
0.0332094
0.031515861
0.027831581
0.022878112
0.017519184
0.012197352
0.0075278362
0.0034654836
0.00023198235
0.003723073
0.016538583
0.019171699
0.024941102
0.030637074
0.035180979
0.037181287
0.036228111
0.03269727
0.027498341
0.021455082
0.015414795
0.0097315554
0.0049252195
0.00082281242
-0.0023773503
0.0048964682
0.017067857
0.019128567
0.024904625
0.031628264
0.037715473
0.041180419
0.04124503
0.038107098
0.032726346
0.026162394
0.019248627
0.012743267
0.0068823811
0.0020826568
-0.0019539121
-0.0050413725
0.0064097292
0.017596112
0.018851784
0.024255387
0.032067757
0.039781156
0.045014571
0.046546319
0.044010338
0.03862636
0.031540446
0.023864248
0.016342735
0.0095968827
0.0037344584
-0.00092640752
-0.0048019808
-0.0077043664
0.0083485231
0.018171315
0.018387301
0.022902903
0.031761137
0.041616697
0.048659438
0.052077638
0.050402901
0.045169903
0.037668705
0.029168708
0.020698285
0.012845634
0.0060750265
0.00037187426
-0.0040327176
-0.0076636414
-0.010326457
0.010697
0.018822042
0.017808735
0.020777612
0.03057921
0.042853816
0.052530613
0.058020119
0.05727426
0.052383079
0.044533649
0.035244721
0.025717823
0.016795413
0.0088777685
0.0022774263
-0.0031260301
-0.007173541
-0.010488788
-0.012870829
0.013336683
0.019517035
0.017205905
0.017740513
0.028502021
0.043097213
0.056027469
0.063273936
0.064585696
0.060278877
0.052180696
0.042083076
0.031476889
0.02135002
0.012305795
0.0045606412
-0.001702194
-0.0066871429
-0.010293213
-0.013233885
-0.015274939
0.016129189
0.020249533
0.016715407
0.013682249
0.02531426
0.042489026
0.058643197
0.06860138
0.072253409
0.068848582
0.060633219
0.04973121
0.037957446
0.026568281
0.016256522
0.0073822551
8.1655355e-06
-0.0057793096
-0.010247871
-0.01334212
-0.015859581
-0.017503656
0.019802271
0.021000575
0.016510808
0.0084514706
0.020881803
0.040908523
0.060691042
0.074595965
0.080341102
0.078115608
0.069920869
0.058213305
0.04519217
0.032412641
0.020767238
0.010634368
0.0021669943
-0.0046789076
-0.0098804334
-0.013752919
-0.016278442
-0.018332386
-0.019633318
0.024293695
0.022134372
0.016795946
0.0018567909
0.0150527
0.038202027
0.062102307
0.080307588
0.088878275
0.088094873
0.080070999
0.067564155
0.053189082
0.038886295
0.025774649
0.014333739
0.0046659651
-0.0032172532
-0.0094150168
-0.01394308
-0.017155492
-0.019070022
-0.020624743
-0.021660758
0.029346661
0.023636818
0.017317526
-0.0063252933
0.0076541976
0.03427176
0.062645637
0.085779616
0.097774138
0.098769739
0.09110232
0.077812302
0.061965657
0.045963166
0.03124252
0.018391585
0.0075072098
-0.0014961109
-0.0086702565
-0.014129616
-0.017914965
-0.020417167
-0.021689534
-0.022722081
-0.023320003
0.034728267
0.025336069
0.018267855
-0.016352149
-0.0015100171
0.029024798
0.062136975
0.090940639
0.10692892
0.1101142
0.10301257
0.088973265
0.07152988
0.053620985
0.037096045
0.022729467
0.010583879
0.00048222841
-0.0077335476
-0.014113392
-0.018765261
-0.021752543
-0.023505749
-0.024110413
-0.024641468
-0.024622585
0.04010392
0.027041016
0.019778804
-0.028578039
-0.012668782
0.022326421
0.060337936
0.095686351
0.11627349
0.12204509
0.11576645
0.10104161
0.081881415
0.061825203
0.0432533
0.027219144
0.013783805
0.0026062529
-0.0065997751
-0.01396045
-0.019485908
-0.023275043
-0.025420366
-0.026394088
-0.02630625
-0.026356917
-0.025813226
0.045189765
0.028604092
0.021203159
-0.043005385
-0.026028952
0.014125349
0.056949257
0.099874457
0.12570524
0.13446617
0.12929041
0.11398433
0.093001764
0.070533846
0.049612316
0.031707973
0.016932897
0.0047467398
-0.0053691454
-0.013647139
-0.020116619
-0.024740378
-0.027619978
-0.028889934
-0.029066464
-0.028255484
-0.02780418
-0.026904903
0.049689798
0.029827536
0.021925826
-0.058314909
-0.041637324
0.0045593715
0.051714222
0.10340129
0.13509354
0.14724644
0.14347167
0.12773037
0.10485017
0.07969071
0.056057363
0.036007667
0.019813229
0.0067047436
-0.0041660235
-0.01324714
-0.020606673
-0.026159475
-0.029838295
-0.031767389
-0.032133668
-0.031515197
-0.030012129
-0.029036008
-0.027824791
0.053542899
0.030552407
0.021594765
-0.073555768
-0.05959316
-0.0066941966
0.044236189
0.10606631
0.1443009
0.16021867
0.15815666
0.14216609
0.11735438
0.089224582
0.062456933
0.039898918
0.02215164
0.0082214599
-0.0031855476
-0.012858908
-0.020991082
-0.027449681
-0.032056385
-0.034746635
-0.035689897
-0.035127676
-0.033693975
-0.031529762
-0.030044648
-0.02848078
0.056257391
0.03071941
0.020455967
-0.08885351
-0.079624812
-0.02134287
0.034715013
0.10778596
0.15314834
0.17319357
0.1731497
0.1571336
0.13040767
0.099041898
0.068666481
0.043132159
0.023618256
0.0089656151
-0.0026920364
-0.01264539
-0.021326373
-0.028600039
-0.034158492
-0.037779028
-0.039436001
-0.03936352
-0.037864139
-0.035620814
-0.032809689
-0.030829844
-0.028896701
0.057841278
0.030112178
0.018627492
-0.10299692
-0.10057184
-0.03890008
0.02475306
0.10844401
0.16147618
0.18594068
0.18822075
0.17243018
0.14386369
0.10902788
0.074525456
0.045429722
0.0238249
0.0085276672
-0.0030263772
-0.012838911
-0.021722665
-0.029615912
-0.036087118
-0.040717247
-0.043300034
-0.043880758
-0.042767685
-0.040331817
-0.03729004
-0.033851768
-0.031398922
-0.02912639
0.058017544
0.028361744
0.017452572
-0.11635176
-0.12366278
-0.058731511
0.01387857
0.10809353
0.16902824
0.19822585
0.20310617
0.18781619
0.15753901
0.11903809
0.079863654
0.046489038
0.02232051
0.0064075769
-0.0046222674
-0.013739601
-0.022348851
-0.030542652
-0.037792559
-0.043460631
-0.04710674
-0.048591073
-0.04805597
-0.045886413
-0.042522351
-0.038701645
-0.034661152
-0.031760381
-0.029172032
0.056542136
0.024824262
0.01725491
-0.12963092
-0.1484946
-0.081300127
0.00011425393
0.1065176
0.17567759
0.20977231
0.21753461
0.2030159
0.17121495
0.1289087
0.084493195
0.045992696
0.018593841
0.002005732
-0.00803357
-0.015750108
-0.023443369
-0.031461137
-0.039248394
-0.045906927
-0.050715994
-0.053300179
-0.053623942
-0.051939445
-0.04870765
-0.044430694
-0.039857978
-0.035245362
-0.03192392
-0.029043944
0.053353326
0.019446945
0.017042894
-0.14432162
-0.17381145
-0.10721837
-0.014557847
0.10353122
0.18120754
0.22038458
0.23121475
0.21774773
0.18464184
0.1384436
0.088225484
0.043605181
0.012077694
-0.0053842242
-0.013927012
-0.019373696
-0.025354032
-0.032509388
-0.040455566
-0.047962721
-0.053982888
-0.057834605
-0.059266019
-0.058370142
-0.055512037
-0.051222548
-0.046056052
-0.04076405
-0.035613343
-0.031900439
-0.028754146
0.048448334
0.012322488
0.016055878
-0.15917226
-0.20217896
-0.1355329
-0.028735948
0.09919785
0.18558098
0.2297733
0.243906
0.23170548
0.19756431
0.1474445
0.090846699
0.038999442
0.0021405803
-0.016582852
-0.023109356
-0.025304861
-0.028195169
-0.033891552
-0.041448714
-0.049556455
-0.056757891
-0.062015892
-0.06478331
-0.064968681
-0.062802557
-0.058758016
-0.053425677
-0.047400764
-0.041427213
-0.035775508
-0.031701683
-0.028314431
0.041935993
0.0035458975
0.013604703
-0.1742472
-0.23091617
-0.16809396
-0.045521971
0.094202835
0.18848412
0.23807336
0.25528541
0.244647
0.20969237
0.15568782
0.092176278
0.031836641
-0.011882404
-0.032537764
-0.036542334
-0.034317545
-0.033013072
-0.035826214
-0.042308174
-0.050630563
-0.058906957
-0.065651225
-0.069973661
-0.07151857
-0.070371168
-0.066896671
-0.061665452
-0.055315156
-0.048469987
-0.041856747
-0.03574338
-0.031339924
-0.027736989
0.034005007
-0.0066659775
0.0090998936
-0.1889861
-0.25947161
-0.20037321
-0.067674019
0.084329504
0.19074014
0.24416368
0.26535906
0.25623062
0.22080813
0.16295572
0.091963837
0.021823051
-0.030694918
-0.054354266
-0.055300382
-0.047402708
-0.040186916
-0.038783806
-0.043155531
-0.051159981
-0.060300128
-0.068559277
-0.074612932
-0.077803214
-0.077990988
-0.075437497
-0.070631587
-0.064226424
-0.056892535
-0.049271346
-0.042063515
-0.035529282
-0.030827793
-0.027034025
0.024971954
-0.017885512
0.0019896599
-0.20217036
-0.2869656
-0.23215547
-0.091951657
0.069876542
0.18761699
0.25049064
0.27353226
0.26644258
0.23056784
0.16906675
0.090098679
0.0086155286
-0.055004776
-0.083246038
-0.080734368
-0.065669592
-0.050557854
-0.043216301
-0.044229475
-0.051159373
-0.060832144
-0.0705575
-0.078487933
-0.083578288
-0.085439213
-0.084149615
-0.080134788
-0.073990817
-0.066437108
-0.058162506
-0.049814588
-0.042059639
-0.035146126
-0.030178009
-0.026217598
0.01509396
-0.029572068
-0.008166002
-0.21253702
-0.31204882
-0.26251391
-0.11718475
0.053224928
0.18092913
0.25189246
0.28107703
0.27459074
0.23901498
0.17375371
0.086313726
-0.0078967387
-0.085488797
-0.12061897
-0.1143165
-0.09028259
-0.065130918
-0.04972071
-0.045825442
-0.050712236
-0.060431605
-0.071486577
-0.081381752
-0.088611582
-0.092460694
-0.092810998
-0.089945623
-0.084434819
-0.076962715
-0.068297637
-0.059132612
-0.050111252
-0.041858239
-0.034607139
-0.029403219
-0.025299465
-0.041039387
0.0046694789
-0.021496801
-0.21890731
-0.33317535
-0.29043999
-0.14206386
0.035166069
0.17132723
0.25117211
0.28444786
0.28214202
0.24529973
0.17706069
0.080528901
-0.028333334
-0.12283272
-0.16804639
-0.15809083
-0.1219717
-0.085114165
-0.059114034
-0.048361143
-0.049970071
-0.059079716
-0.071218486
-0.083103315
-0.092666831
-0.098814349
-0.10116319
-0.099848461
-0.095334966
-0.088315007
-0.079540578
-0.069811867
-0.059812907
-0.050174396
-0.041473122
-0.033925611
-0.028515758
-0.024291025
-0.036634783
-0.051431206
-0.0061504668
-0.22022824
-0.34889668
-0.3146797
-0.16516893
0.015937712
0.15943397
0.24724141
0.287907
0.28557287
0.25120685
0.1782023
0.072600455
-0.052285679
-0.16793084
-0.22742511
-0.21417016
-0.16507367
-0.11197253
-0.072387885
-0.052425326
-0.049200103
-0.056831224
-0.069676707
-0.083493712
-0.095537686
-0.10425636
-0.10896446
-0.10958768
-0.10648651
-0.10028017
-0.091758888
-0.081722515
-0.070987095
-0.060215693
-0.050018252
-0.040918392
-0.033114578
-0.027527667
-0.023203291
-0.21706931
-0.052248558
-0.060067083
-0.017583472
-0.35789865
-0.33395146
-0.18524512
-0.003834508
0.14481903
0.24072488
0.2879446
0.2917117
0.25353175
0.1790516
0.062391902
-0.080161069
-0.21868945
-0.29867672
-0.28388737
-0.22112165
-0.14804961
-0.090752311
-0.058774856
-0.048812712
-0.053844938
-0.06686245
-0.082450225
-0.097051813
-0.10857511
-0.11597129
-0.11892703
-0.11764176
-0.11266822
-0.10475138
-0.094756182
-0.083511264
-0.071833807
-0.060355108
-0.049657679
-0.040208022
-0.032186875
-0.026450743
-0.022046841
-0.35909874
-0.20958461
-0.068115108
-0.067252964
-0.029609728
-0.34706063
-0.20122913
-0.023688425
0.12761663
0.23088259
0.28474404
0.29429536
0.26133513
0.17819172
0.050971121
-0.1105018
-0.27619219
-0.37736354
-0.36550775
-0.29021173
-0.19628602
-0.11613937
-0.068371739
-0.049391284
-0.050421766
-0.062877861
-0.079954488
-0.097099092
-0.11159613
-0.12197241
-0.12762709
-0.12857345
-0.12524283
-0.11834598
-0.10872673
-0.097302726
-0.084913987
-0.07236522
-0.060246425
-0.049107606
-0.039355964
-0.031155419
-0.02529652
-0.020831476
-0.35295355
-0.35152472
-0.19695273
-0.082701841
-0.073624517
-0.040859361
-0.21231742
-0.043157893
0.1078307
0.21723949
0.27819711
0.29253619
0.26554348
0.1859234
0.042447788
-0.14473652
-0.33717052
-0.46701502
-0.46069699
-0.3688591
-0.25627284
-0.15114987
-0.082828737
-0.051749512
-0.04703742
-0.057974914
-0.076089907
-0.095658482
-0.1132096
-0.12679866
-0.13548384
-0.13905004
-0.1377882
-0.13232013
-0.12348237
-0.11219231
-0.099400347
-0.08594176
-0.072596385
-0.05990531
-0.048383206
-0.038376765
-0.030033227
-0.024075485
-0.019565957
-0.21796395
-0.35080462
-0.33507152
-0.17906743
-0.09320806
-0.078798967
-0.050743288
-0.061878186
0.085550021
0.1994205
0.26717684
0.28708208
0.26423414
0.19039712
0.044595974
-0.16767695
-0.40737847
-0.56478171
-0.56863262
-0.45837909
-0.32303959
-0.19470632
-0.10415018
-0.057157821
-0.044406452
-0.052570738
-0.071103239
-0.092811116
-0.11339599
-0.13034333
-0.14233427
-0.14887722
-0.15008382
-0.1464721
-0.13881634
-0.1280504
-0.11514213
-0.10105631
-0.086608426
-0.072543236
-0.059348096
-0.047500956
-0.037285636
-0.028831956
-0.022796258
-0.018258461
-0.079644635
-0.21817556
-0.34035578
-0.30994138
-0.15662638
-0.098460821
-0.082266288
-0.058914679
0.06092656
0.17698713
0.25090378
0.27680878
0.25817945
0.18877275
0.044214434
-0.18150957
-0.45879766
-0.68129371
-0.69067185
-0.56094319
-0.39355319
-0.24243363
-0.13195535
-0.067203699
-0.043567678
-0.04732748
-0.065386955
-0.088812094
-0.11223494
-0.13258678
-0.14807678
-0.15789817
-0.16194324
-0.1605922
-0.15454301
-0.14468805
-0.13203345
-0.11757755
-0.10228186
-0.086929394
-0.072222976
-0.058593379
-0.046478758
-0.036095865
-0.027559986
-0.021466557
-0.016917927
0.033926639
-0.096082419
-0.21352199
-0.32162211
-0.27738958
-0.13037412
-0.098144402
-0.08380419
-0.065082154
0.14953161
0.2285185
0.26026483
0.24670802
0.18130334
0.038060868
-0.19686228
-0.50928644
-0.78580461
-0.84063407
-0.68549562
-0.47941288
-0.29584
-0.16427956
-0.082652811
-0.045894474
-0.043163651
-0.059597596
-0.084034761
-0.10997452
-0.13360608
-0.15269078
-0.16601973
-0.17321741
-0.17450172
-0.17046293
-0.16193654
-0.14990488
-0.13542453
-0.1195054
-0.10309067
-0.086922181
-0.071656332
-0.057662217
-0.045331958
-0.034815302
-0.026224176
-0.020097229
-0.015554017
0.11663421
0.0035927698
-0.11013283
-0.2049013
-0.29543673
-0.23956339
-0.10132323
-0.092600804
-0.083434514
-0.069089987
0.19895021
0.23624812
0.22801355
0.16749367
0.025026876
-0.21683333
-0.55976866
-0.91095036
-0.99704407
-0.8417901
-0.59357587
-0.36437838
-0.20306432
-0.10376943
-0.052780151
-0.041290794
-0.054604185
-0.07915024
-0.10695311
-0.13361804
-0.15626016
-0.1732252
-0.1838198
-0.18805739
-0.18640376
-0.17960731
-0.16860603
-0.15444895
-0.13822395
-0.12093602
-0.10349959
-0.086609448
-0.070867835
-0.056572361
-0.044067721
-0.033449536
-0.024838147
-0.018703991
-0.01417338
0.16115965
0.077517861
-0.030712059
-0.12162119
-0.19472492
-0.26385527
-0.19899126
-0.070895924
-0.082315469
-0.081398803
-0.070706987
0.20323464
0.20048641
0.14551589
0.0046434409
-0.24586565
-0.61290109
-1.0369804
-1.1989881
-1.0093942
-0.73470748
-0.45800585
-0.25497949
-0.13310249
-0.065943987
-0.04320784
-0.051514612
-0.074965488
-0.10384015
-0.13291298
-0.15895035
-0.17958439
-0.19373572
-0.20117386
-0.20222427
-0.1975322
-0.18795971
-0.17452041
-0.15831184
-0.14043674
-0.12188425
-0.10353273
-0.086019393
-0.069877906
-0.055329967
-0.042689951
-0.032016996
-0.023426728
-0.017297147
-0.012775172
0.15955015
0.1135479
0.03215489
-0.068551036
-0.13215919
-0.18489887
-0.23017263
-0.15786664
-0.040666234
-0.068102839
-0.07699435
-0.070220893
0.16246772
0.11345091
-0.024687951
-0.28522582
-0.67793012
-1.1766427
-1.4220239
-1.2368765
-0.88484509
-0.57091928
-0.32440615
-0.1741828
-0.089254025
-0.050950787
-0.051817633
-0.072498945
-0.10134494
-0.13207786
-0.16102491
-0.18525985
-0.2030342
-0.21383649
-0.21783512
-0.21556761
-0.20780124
-0.19547457
-0.17966055
-0.16149117
-0.14207403
-0.12237476
-0.10322191
-0.085175178
-0.068691215
-0.053936769
-0.04122307
-0.030557178
-0.022005841
-0.015863822
-0.011285574
0.11214232
0.10282171
0.054949305
-0.019845509
-0.10760068
-0.14265031
-0.17570935
-0.19647742
-0.11797633
-0.012069041
-0.052882338
-0.070631597
-0.068267357
0.069539934
-0.065047665
-0.33560511
-0.75991849
-1.3411283
-1.6986251
-1.5008385
-1.1008925
-0.69762902
-0.40804916
-0.2245371
-0.12527634
-0.069116808
-0.057037487
-0.073291891
-0.10053673
-0.13159831
-0.16297191
-0.19048294
-0.21187331
-0.22611357
-0.23321082
-0.2336149
-0.22798035
-0.21715136
-0.20212096
-0.18401474
-0.16399242
-0.14315988
-0.12244275
-0.1025929
-0.084079222
-0.067306608
-0.05242488
-0.039725253
-0.029093771
-0.020545314
-0.014289116
-0.0096925842
0.012292266
0.046814564
0.031253072
-0.016384426
-0.078670338
-0.14791692
-0.15139609
-0.16509648
-0.16375174
-0.080542048
0.013039403
-0.039465061
-0.063127619
-0.065133212
-0.11840008
-0.39869377
-0.85801718
-1.5329919
-2.0402661
-1.8423586
-1.3595886
-0.88270123
-0.51539683
-0.28423868
-0.16538883
-0.10090175
-0.07165277
-0.07795564
-0.10298991
-0.13239114
-0.16511739
-0.19566886
-0.22048467
-0.23816262
-0.24841082
-0.25162197
-0.24837946
-0.23939065
-0.22553915
-0.2078764
-0.18758088
-0.16583763
-0.14373236
-0.12211613
-0.10164473
-0.082726471
-0.065765385
-0.050876248
-0.038230525
-0.027566343
-0.018863165
-0.012612654
-0.0080320616
-0.18589923
-0.060786491
-0.035002343
-0.058200513
-0.10184137
-0.14444692
-0.19115328
-0.16181309
-0.15355839
-0.13372968
-0.047870763
0.034735665
-0.028032777
-0.054306591
-0.060592689
-0.47668496
-0.97218382
-1.7490712
-2.4340851
-2.267316
-1.6864859
-1.1044435
-0.66233422
-0.38046214
-0.20814375
-0.13730175
-0.098135695
-0.091229102
-0.10573238
-0.13517761
-0.16828944
-0.20106948
-0.2292471
-0.25023177
-0.263586
-0.26962269
-0.26891653
-0.26204575
-0.24974612
-0.23293165
-0.21272966
-0.19037745
-0.16706692
-0.14382074
-0.12138889
-0.10036705
-0.081169221
-0.064178625
-0.04933758
-0.036640845
-0.02567823
-0.017082559
-0.010860494
-0.0063069349
-0.57069547
-0.26907889
-0.15000782
-0.13672245
-0.16794371
-0.20260972
-0.2182041
-0.23553757
-0.17635497
-0.14526406
-0.10737373
-0.019263025
0.05173304
-0.017617397
-0.044031665
-0.054738462
-1.1010074
-1.9913105
-2.8547847
-2.7819472
-2.0903358
-1.3792235
-0.83878871
-0.4932566
-0.30051203
-0.17067108
-0.13562785
-0.112723
-0.11840025
-0.14052115
-0.17281979
-0.20742895
-0.23841571
-0.26269597
-0.27899448
-0.28774175
-0.28956847
-0.28501178
-0.27457332
-0.25901016
-0.23930891
-0.21669445
-0.19244556
-0.16770972
-0.14341152
-0.12024332
-0.098825084
-0.079554043
-0.062608901
-0.047661965
-0.03450906
-0.023684213
-0.015215098
-0.0090408799
-0.0045178348
-1.2410503
-0.67738402
-0.36642404
-0.25831124
-0.26078386
-0.29973571
-0.31943237
-0.3024882
-0.27993875
-0.19328933
-0.14013303
-0.083047088
0.0042235969
0.066735601
-0.0082446786
-0.032620528
-0.047260604
-2.2550914
-3.2995987
-3.3852151
-2.58674
-1.7209826
-1.0457164
-0.63717632
-0.38437635
-0.25702862
-0.17005397
-0.14981539
-0.13620953
-0.15076101
-0.17955123
-0.21483254
-0.24869746
-0.27587327
-0.29501632
-0.30621665
-0.31040667
-0.30817645
-0.29986719
-0.28592421
-0.26715378
-0.24467914
-0.2198117
-0.19381289
-0.1677417
-0.14247682
-0.11875983
-0.097208262
-0.077962717
-0.060849799
-0.045203347
-0.032260115
-0.02159164
-0.013279512
-0.0071531792
-0.0026663981
-2.5313085
-1.3834822
-0.79100505
-0.48035399
-0.3871426
-0.40856285
-0.45449844
-0.45287903
-0.39804398
-0.32546952
-0.21243445
-0.13420982
-0.062391636
0.024773368
0.078917784
-3.5362864e-05
-0.020469288
-0.037909729
-3.7824957
-4.0573199
-3.1855623
-2.1323006
-1.2912207
-0.79980844
-0.49969197
-0.32898169
-0.24396385
-0.18527365
-0.16597402
-0.16496721
-0.18925408
-0.22422474
-0.2600798
-0.29049071
-0.31205305
-0.32540737
-0.33160391
-0.33153036
-0.32544182
-0.31345997
-0.29606295
-0.27417942
-0.24908214
-0.22210491
-0.19443986
-0.16712096
-0.14111472
-0.11717975
-0.095621672
-0.076115606
-0.058003517
-0.042607531
-0.029896355
-0.019434905
-0.011271879
-0.0051998393
-0.00075435893
-4.2850933
-2.7997355
-1.5244727
-0.91700304
-0.61055831
-0.53646497
-0.58030587
-0.63250251
-0.6023946
-0.50212468
-0.37361655
-0.22829889
-0.12918658
-0.044025185
0.040928853
0.087247391
0.0066023501
-0.0083000442
-0.029509032
-4.7681022
-3.8693318
-2.5943795
-1.575488
-0.98165939
-0.63208875
-0.42480896
-0.30318531
-0.26115991
-0.20153633
-0.18680238
-0.20177175
-0.23556028
-0.27368166
-0.30659643
-0.33087731
-0.34576128
-0.35344362
-0.35513624
-0.35117886
-0.34138313
-0.32578272
-0.30499116
-0.28012604
-0.25253422
-0.2235135
-0.19426547
-0.16596585
-0.13962944
-0.11563615
-0.093696539
-0.07280042
-0.054991754
-0.039878558
-0.027474175
-0.017204803
-0.009196041
-0.0031828969
0.0012162142
-5.4812937
-4.7518305
-3.0488065
-1.6729934
-1.0569151
-0.75390467
-0.70487677
-0.77514906
-0.83218894
-0.76551048
-0.61396688
-0.42042396
-0.24151513
-0.12452087
-0.029200498
0.052157178
0.091146935
0.011680277
0.0012164129
-0.023022081
-4.5916169
-3.0941529
-1.8925883
-1.1773079
-0.78075408
-0.53127586
-0.39248756
-0.32122055
-0.25776585
-0.21070088
-0.21904366
-0.24941458
-0.28893584
-0.32555355
-0.35172273
-0.36806321
-0.37633201
-0.3791373
-0.37699501
-0.36945793
-0.35602405
-0.33684363
-0.31275054
-0.28499988
-0.2549467
-0.22395083
-0.19343091
-0.16465634
-0.13818748
-0.11365054
-0.0898307
-0.069281645
-0.051823473
-0.03710135
-0.024977247
-0.01490656
-0.0070544197
-0.0011050506
0.0032432221
-5.2969189
-6.1252874
-5.1450797
-3.249959
-1.8291304
-1.1984669
-0.90587626
-0.88962624
-0.99014281
-1.0536273
-0.93817763
-0.72738555
-0.46302168
-0.25492781
-0.12132703
-0.018146353
0.057884016
0.089905539
0.016758133
0.0068713211
-0.016974902
-3.6172173
-2.2316902
-1.3817895
-0.93611821
-0.6533061
-0.49202326
-0.40730347
-0.32654698
-0.24690472
-0.23657372
-0.26620934
-0.30735284
-0.34654968
-0.37619348
-0.39274862
-0.40097177
-0.40379266
-0.40284538
-0.39743965
-0.38646475
-0.3694107
-0.34668668
-0.31933389
-0.2886755
-0.25619882
-0.22358331
-0.1924066
-0.16339858
-0.1361748
-0.10914145
-0.085712101
-0.065578126
-0.048620663
-0.034249837
-0.022412973
-0.012542357
-0.0048508957
0.0010309741
0.0053248046
-4.1193695
-5.915141
-6.6419752
-5.424916
-3.3809483
-1.9821812
-1.3256225
-1.0613952
-1.0857584
-1.2234587
-1.2835949
-1.1195616
-0.82373955
-0.50995366
-0.27147785
-0.11937186
-0.011110529
0.059106234
0.083141847
0.021087403
0.010057008
-0.011761433
-2.5796011
-1.5855015
-1.0871677
-0.78647298
-0.592623
-0.50137311
-0.41780661
-0.29085999
-0.25855268
-0.28402112
-0.32766086
-0.37221918
-0.40357483
-0.42155541
-0.42787974
-0.4295941
-0.42875815
-0.4250782
-0.41671173
-0.40229511
-0.38159192
-0.35528637
-0.32456824
-0.29098733
-0.2564838
-0.22298825
-0.19144508
-0.16141144
-0.13092184
-0.1043205
-0.08137388
-0.061858747
-0.045344638
-0.031333772
-0.019783335
-0.010116788
-0.0025893043
0.0032230388
0.0074588586
-2.8993177
-4.5534775
-6.3863898
-6.962992
-5.5584607
-3.4576003
-2.1184845
-1.4397964
-1.2141524
-1.2887818
-1.4635235
-1.527653
-1.2836445
-0.92217747
-0.55220289
-0.28929232
-0.11859822
-0.007999704
0.05569564
0.072156421
0.022416466
0.011227537
-0.0071301937
-1.7722817
-1.2215885
-0.91140532
-0.69525152
-0.61211215
-0.52764363
-0.36809694
-0.27658968
-0.29919341
-0.35124629
-0.3996076
-0.43757129
-0.45414013
-0.45872938
-0.45694006
-0.4549018
-0.45213462
-0.44632549
-0.43500949
-0.41703302
-0.39252437
-0.36241036
-0.32822944
-0.29215533
-0.25650341
-0.22247185
-0.18955993
-0.15530822
-0.12528881
-0.099235922
-0.077044202
-0.058068535
-0.042008159
-0.028354354
-0.017094088
-0.0076340072
-0.00027198583
0.0054701367
0.0096416642
-1.9215848
-3.1100905
-4.8509944
-6.6305061
-7.0381834
-5.5287265
-3.4783507
-2.2159192
-1.5435794
-1.3566478
-1.4872678
-1.7230158
-1.7679402
-1.4558198
-1.0197998
-0.58688556
-0.30286246
-0.11930994
-0.0087049382
0.048368165
0.059384901
0.020949514
0.010892926
-0.0033342563
-1.3311023
-1.0027938
-0.80449819
-0.72470575
-0.64689749
-0.48141257
-0.31723721
-0.30402641
-0.36488087
-0.43423764
-0.47400358
-0.49487074
-0.49355342
-0.4872005
-0.48137308
-0.47840327
-0.47481587
-0.46697176
-0.45246509
-0.43061489
-0.40190186
-0.36775889
-0.33056173
-0.29302377
-0.2566248
-0.2207972
-0.18249474
-0.14874767
-0.11933574
-0.094190909
-0.072647107
-0.054223787
-0.03861128
-0.025318228
-0.014350278
-0.0050953488
0.0021024214
0.0077666932
0.011871037
-1.4039034
-2.0112249
-3.1516599
-4.9333483
-6.5906895
-6.8477897
-5.3346527
-3.4146285
-2.2430869
-1.6262178
-1.4764352
-1.6941913
-1.9705456
-2.0381874
-1.6293493
-1.1096938
-0.6197338
-0.31289836
-0.12158709
-0.012900519
0.038153297
0.046267068
0.017257914
0.0094908787
-0.00065072971
-1.0596938
-0.9080727
-0.82261427
-0.7699047
-0.60638857
-0.38677381
-0.31988247
-0.36606949
-0.45239631
-0.52292409
-0.53928743
-0.53671435
-0.52050379
-0.50901603
-0.5035879
-0.5016279
-0.49749599
-0.48724282
-0.46900565
-0.44264163
-0.40932745
-0.37159407
-0.33256944
-0.29402804
-0.25530878
-0.21266056
-0.17488416
-0.14179396
-0.11346122
-0.089082603
-0.068203114
-0.050322799
-0.035161649
-0.022230786
-0.011552378
-0.0024954701
0.0045248756
0.010108648
0.014144328
-1.0909573
-1.4323546
-2.0374062
-3.0431253
-4.7808833
-6.2590316
-6.4120501
-4.9929198
-3.2596662
-2.2126086
-1.6744049
-1.5762038
-1.8790785
-2.2402309
-2.3144134
-1.7989388
-1.1810377
-0.64457775
-0.32161703
-0.12537293
-0.020046447
0.026049507
0.03326981
0.012083655
0.0070195798
-0.00041698969
-0.97162835
-0.89551425
-0.89276792
-0.73968354
-0.48812299
-0.35558663
-0.36961578
-0.46022024
-0.5518469
-0.60099932
-0.58438468
-0.56059404
-0.53766666
-0.52789189
-0.52608233
-0.5257734
-0.5205512
-0.50702241
-0.48410912
-0.45259089
-0.41506872
-0.37509584
-0.33476354
-0.29326791
-0.24599951
-0.20387539
-0.16678673
-0.13496675
-0.10752771
-0.083936826
-0.063707919
-0.04637413
-0.031665006
-0.019090756
-0.0086890786
0.00015043617
0.0069911618
0.012491662
0.016459186
-0.97267725
-1.0891763
-1.4076717
-1.9920978
-2.8578628
-4.3956115
-5.6856041
-5.7829861
-4.5382467
-3.0291461
-2.1495994
-1.6793825
-1.6467581
-2.0694412
-2.5318477
-2.5826272
-1.9516989
-1.2240952
-0.65337978
-0.32739264
-0.13038172
-0.029415498
0.012952239
0.020630063
0.0063015912
0.0031278129
-0.0015003647
-0.9407884
-0.99061319
-0.86151407
-0.60923126
-0.41020473
-0.38485001
-0.46277264
-0.5797288
-0.64418461
-0.65131916
-0.60459029
-0.57006501
-0.55062744
-0.54776836
-0.55083211
-0.55146075
-0.54384747
-0.52566231
-0.49709217
-0.46071447
-0.42049175
-0.37885736
-0.33481734
-0.28270313
-0.23591446
-0.1944833
-0.15887391
-0.12808412
-0.10156771
-0.078745713
-0.059170757
-0.042383608
-0.028117889
-0.015879707
-0.0057807791
0.0028365375
0.0094960277
0.01491237
0.018812952
-0.95461201
-0.92726916
-1.0455149
-1.3268933
-1.8395233
-2.5903032
-3.8284146
-4.9462363
-5.0322951
-4.0085885
-2.7630339
-1.9894166
-1.6457775
-1.7150566
-2.275174
-2.8200419
-2.8212768
-2.0711138
-1.2318432
-0.64614433
-0.3276175
-0.13599953
-0.040146913
-0.00035175559
0.0087269437
0.0010374031
-0.00093883817
-0.0014322303
-1.0470004
-0.969487
-0.72534044
-0.47929281
-0.41395542
-0.47040852
-0.5971672
-0.70420353
-0.70601859
-0.66558242
-0.60387925
-0.5732828
-0.56547259
-0.57179667
-0.57885146
-0.57852059
-0.56653547
-0.54226196
-0.50815738
-0.46856699
-0.42627751
-0.3800558
-0.32294559
-0.2711977
-0.22507082
-0.18534441
-0.15090758
-0.12118716
-0.095568504
-0.073519047
-0.054597151
-0.038344997
-0.024492266
-0.012626372
-0.0028340488
0.0055560724
0.012036318
0.017367273
0.021201575
-1.0531885
-0.93430478
-0.85641531
-0.96459815
-1.1974925
-1.6083564
-2.2236952
-3.1749625
-4.1263503
-4.2401533
-3.4665179
-2.3657736
-1.8058591
-1.6020887
-1.7871565
-2.4791212
-3.0765372
-3.0009093
-2.1400009
-1.2066378
-0.62472351
-0.32235608
-0.14146234
-0.051280937
-0.013135132
-0.0020719734
-0.0039181383
-0.0042884685
-0.0015862875
-1.0453062
-0.83066905
-0.56765281
-0.45267933
-0.48789478
-0.61588043
-0.75467247
-0.79997735
-0.72171981
-0.64910656
-0.59328815
-0.57948772
-0.58707727
-0.60158365
-0.60996071
-0.60584406
-0.58742812
-0.55692432
-0.51903769
-0.47692099
-0.42903601
-0.36687496
-0.30991166
-0.25874449
-0.21455939
-0.17615044
-0.14293972
-0.11425681
-0.089540219
-0.068261666
-0.049977217
-0.034219002
-0.02082537
-0.0093387293
0.00014293282
0.0083063644
0.014608981
0.019850354
0.023619924
-1.072124
-1.0131145
-0.87152124
-0.76917514
-0.85158544
-1.0326891
-1.3464092
-1.8184966
-2.5401374
-3.3197717
-3.48136
-2.8289352
-2.0157007
-1.6237476
-1.5591072
-1.8607377
-2.6551018
-3.2703077
-3.0899137
-2.1410876
-1.1497329
-0.59227187
-0.31249776
-0.145891
-0.061822739
-0.024803223
-0.011587729
-0.0088808147
-0.0069230531
-0.0018611738
-0.90002234
-0.6480458
-0.49779803
-0.51137395
-0.64388141
-0.81022774
-0.89606808
-0.83432544
-0.69439462
-0.61748684
-0.58728103
-0.59617488
-0.61787665
-0.63699881
-0.64264156
-0.63183575
-0.60645908
-0.57153411
-0.5305965
-0.48175025
-0.41461286
-0.35222458
-0.29569641
-0.24671141
-0.20398568