/*--------------------------------*- C++ -*----------------------------------*\
| =========                 |                                                 |
| \\      /  F ield         | OpenFOAM: The Open Source CFD Toolbox           |
|  \\    /   O peration     | Version:  v2012                                 |
|   \\  /    A nd           | Website:  www.openfoam.com                      |
|    \\/     M anipulation  |                                                 |
\*---------------------------------------------------------------------------*/
FoamFile
{
    version     2.0;
    format      ascii;
    class       surfaceScalarField;
    location    "63.7469491763794949";
    object      phi;
}
// * * * * * * * * * * * * * * * * * * * * * * * * * * * * * * * * * * * * * //

dimensions      [0 3 -1 0 0 0 0];
oriented        oriented;


internalField   nonuniform List<scalar> 
18180
(
-0.0013715843
-3.4363231
-0.0019501011
-3.2089181
0.0022116793
-3.4942417
-0.0012939541
-2.9960094
0.0048461605
-3.2628033
0.0031961582
-3.5546402
0.00080973199
-2.7964632
0.0081598044
-3.0462743
0.0067370702
-3.3194799
0.0042667984
-3.6148302
0.0045198373
-2.6106429
0.012393006
-2.8437374
0.010715751
-3.0992238
0.008737064
-3.376517
0.0049142257
-3.6734071
0.0098221148
-2.4371791
0.017571811
-2.6558277
0.015386807
-2.8937628
0.013435741
-3.1532679
0.0099083491
-3.4319713
0.0053243807
-3.7285745
0.016612974
-2.2754472
0.023694457
-2.4809905
0.020744765
-2.7033136
0.01859033
-2.9447919
0.015008048
-3.2057153
0.010644509
-3.4844193
0.0055185469
-3.7804787
0.024698977
-2.1245685
0.030651897
-2.3180858
0.026798743
-2.5263143
0.024185049
-2.7514367
0.020394665
-2.9942711
0.015982135
-3.2554469
0.01098581
-3.5336368
0.0055528495
-3.8283115
0.033814792
-1.983883
0.038325605
-2.1661195
0.033480991
-2.3616694
0.030222791
-2.5720424
0.026045583
-2.7980944
0.021487566
-3.0414727
0.016416972
-3.3024997
0.011029959
-3.5793614
0.0054641914
-3.8725842
0.043676151
-1.8527065
0.046586166
-2.0243147
0.040727222
-2.2081917
0.036641497
-2.4053989
0.031943224
-2.6162544
0.027129996
-2.842801
0.021948549
-3.0865007
0.016449033
-3.3464313
0.010842917
-3.6215735
0.0052819305
-3.9129093
0.054019236
-1.7303926
0.055323776
-1.8919746
0.048472394
-2.0649888
0.043378157
-2.2501757
0.03801286
-2.4474
0.032876453
-2.6583614
0.027546214
-2.8856764
0.021944079
-3.1290309
0.016166426
-3.3871473
0.010479019
-3.6601768
0.0050273047
-3.9498346
0.064580321
-1.616312
0.064455072
-1.7684608
0.056664488
-1.9312997
0.050370797
-2.1053746
0.044172064
-2.2901855
0.038634715
-2.4871011
0.033171718
-2.6991583
0.027485874
-2.9267114
0.021573854
-3.168461
0.01563857
-3.4243871
0.0099774496
-3.6954027
0.0047154562
-3.9831659
0.075072757
-1.5098484
0.073914471
-1.6531545
0.065274166
-1.8064762
0.057578678
-1.9701694
0.050334605
-2.1435404
0.044295539
-2.3276084
0.038722529
-2.525437
0.03304517
-2.7381981
0.027050665
-2.9647034
0.020910033
-3.2045033
0.014913753
-3.4583478
0.0093666213
-3.7273534
0.0043583082
-4.013647
0.085221967
-1.4104166
0.08364754
-1.5454555
0.074306907
-1.6899239
0.064999463
-1.8439182
0.056426442
-2.0065573
0.04973294
-2.1786603
0.044072499
-2.3633082
0.038526103
-2.5622727
0.032589609
-2.7745721
0.026299374
-2.9993628
0.019996741
-3.2373764
0.014026947
-3.4892143
0.0086691216
-3.7564331
0.003967828
-4.0411812
0.0947758
-1.3174655
0.093640763
-1.4448293
0.083809259
-1.5810895
0.072662394
-1.7260468
0.062393905
-1.8785788
0.05481819
-2.0394088
0.049067606
-2.2117887
0.04380666
-2.3977754
0.038118444
-2.5966968
0.031829318
-2.8076604
0.025254786
-3.0309862
0.018863656
-3.267283
0.013007298
-3.5172575
0.0079065336
-3.7827791
0.0035576628
-4.0662837
0.10350964
-1.2304856
0.10389528
-1.3507461
0.093876878
-1.4794888
0.080650087
-1.616051
0.068200004
-1.7590316
0.059417626
-1.90914
0.053537233
-2.0699187
0.048730837
-2.2437377
0.043544038
-2.4301261
0.037464175
-2.6281267
0.030742563
-2.8378833
0.02392618
-3.0597947
0.017537917
-3.2944823
0.01188396
-3.5426633
0.0071019756
-3.8066513
0.0031422152
-4.0888379
0.1112374
-1.1490144
0.11442789
-1.2627124
0.10462673
-1.3846194
0.0890741
-1.5134709
0.073863229
-1.6474582
0.063406389
-1.7872806
0.057292992
-1.9369982
0.053114528
-2.0993555
0.048738586
-2.2740645
0.043155794
-2.4599761
0.03646569
-2.6570699
0.029296688
-2.8657184
0.022327485
-3.0861725
0.016052067
-3.3191448
0.010688514
-3.5656232
0.0062795862
-3.8281763
0.0027344364
-4.1093851
0.11781285
-1.0726355
0.1252831
-1.1802965
0.11619561
-1.2960131
0.098095062
-1.4178441
0.079381534
-1.5433747
0.066679568
-1.6733773
0.060161867
-1.8124398
0.05675127
-1.9638909
0.053548221
-2.1276755
0.04882593
-2.3024479
0.042427668
-2.4878687
0.035019637
-2.6840523
0.027476641
-2.891288
0.020488787
-3.1101457
0.014446997
-3.3414591
0.0094544811
-3.5863022
0.0054620564
-3.847624
0.002343368
-4.1278661
0.1230587
-1.0009617
0.13649812
-1.1030713
0.12873876
-1.2132579
0.1079069
-1.3287344
0.084819167
-1.4463717
0.069104077
-1.566912
0.061941321
-1.6957514
0.05941762
-1.8367146
0.057799743
-1.9901751
0.054378262
-2.1546227
0.048610415
-2.3293066
0.041148146
-2.5140805
0.033060514
-2.7089585
0.025301874
-2.9146489
0.0184595
-3.1318925
0.01277018
-3.3615046
0.0082151723
-3.6048893
0.0046678523
-3.8651205
0.0019734253
-4.144649
0.12676994
-0.93369987
0.14810253
-1.0306382
0.14242125
-1.1359355
0.11871633
-1.2457391
0.090285688
-1.3560507
0.070596424
-1.4675267
0.062366054
-1.5863383
0.060818974
-1.7172455
0.061286873
-1.8608809
0.059696894
-2.0156619
0.054985758
-2.1805179
0.047723387
-2.3549374
0.039171121
-2.5385357
0.030584131
-2.7317514
0.022828906
-2.9358257
0.01630442
-3.1514191
0.011071779
-3.3794743
0.0070010033
-3.6215362
0.0039102281
-3.880831
0.0016264248
-4.159665
0.12875566
-0.87046257
0.16011891
-0.96269842
0.15743392
-1.0636723
0.13075924
-1.168471
0.095877212
-1.2719878
0.071102828
-1.3748485
0.061217085
-1.4838877
0.060879618
-1.605095
0.063812027
-1.7392014
0.064644921
-1.884852
0.061509894
-2.0406567
0.054785783
-2.20561
0.045898435
-2.3789586
0.036450632
-2.5608501
0.027651313
-2.7523967
0.02014481
-2.9548874
0.014096529
-3.1689185
0.009399548
-3.3954966
0.0058374742
-3.6363742
0.0031982058
-3.8948827
0.0013039134
-4.1732716
0.12895335
-0.8110541
0.17261715
-0.89891294
0.17391389
-0.99611027
0.14426369
-1.096542
0.10172086
-1.1938232
0.070545292
-1.2884286
0.058355169
-1.3881043
0.059353582
-1.4997686
0.06515816
-1.6247273
0.069100012
-1.7615913
0.068129166
-1.9089271
0.062369199
-2.0652445
0.053342335
-2.2292827
0.043023249
-2.4009161
0.033046483
-2.5810491
0.0243768
-2.7709847
0.01735437
-2.9719417
0.011908195
-3.184504
0.0077948147
-3.409734
0.0047441437
-3.6495607
0.0025373199
-3.907444
0.0010059532
-4.1854436
0.12762657
-0.7552321
0.18559327
-0.83900883
0.19201426
-0.93291879
0.15945423
-1.029583
0.1079541
-1.1211738
0.068858492
-1.2079191
0.053623633
-1.2985251
0.055872386
-1.4008432
0.065117505
-1.5169653
0.072851359
-1.6453765
0.074774623
-1.7847239
0.070501557
-1.933138
0.06160525
-2.0887712
0.050442617
-2.2510775
0.039146626
-2.4208905
0.029106793
-2.5993379
0.020908831
-2.7876443
0.014565517
-2.9871658
0.0098036329
-3.1983409
0.0062896578
-3.4223076
0.0037340095
-3.6612366
0.0019299782
-3.9186457
0.00072998549
-4.1964285
0.1247984
-0.70278802
0.19918203
-0.78287946
0.21184035
-0.87377351
0.176525
-0.96722746
0.11472117
-1.0536781
0.065994523
-1.1329609
0.046847537
-1.2147827
0.05024418
-1.3080223
0.063475499
-1.4154753
0.075738637
-1.5357639
0.081360859
-1.6675121
0.079196133
-1.808643
0.070790487
-1.9567303
0.058860903
-2.1106769
0.046108647
-2.2711153
0.034455227
-2.4391156
0.024838181
-2.6157457
0.017405848
-2.8025333
0.011876004
-3.0006801
0.0078334971
-3.2105381
0.0049055236
-3.4333814
0.0028137391
-3.6715532
0.0013778325
-3.9285969
0.00047651261
-4.2061987
0.12059971
-0.6536178
0.21339507
-0.73019116
0.23335838
-0.81842357
0.19566241
-0.90914338
0.12217456
-0.99097873
0.061906961
-1.0631932
0.037880064
-1.1365457
0.042284965
-1.2209387
0.06001887
-1.3199528
0.07765284
-1.4323637
0.087799087
-1.5568421
0.088459396
-1.6911973
0.080995743
-1.8324863
0.068441329
-1.9790043
0.054108989
-2.1309518
0.040569027
-2.2894596
0.029232157
-2.4555056
0.020470143
-2.6304059
0.014014742
-2.8157603
0.0093639943
-3.0126243
0.0060319671
-3.2212568
0.0036535349
-3.4430829
0.0019846979
-3.6806023
0.00088270295
-3.9374271
0.0002402538
-4.214972
0.11520061
-0.60743945
0.22814466
-0.6807388
0.25658082
-0.76657721
0.21692454
-0.85495234
0.13046143
-0.93273722
0.05655147
-0.99825974
0.02659785
-1.0634762
0.03183214
-1.1392721
0.054584604
-1.2300703
0.078441399
-1.3348286
0.094000596
-1.4523224
0.098279482
-1.5803195
0.092307671
-1.7154372
0.079350608
-1.8553652
0.063344586
-1.9997675
0.04761847
-2.1496475
0.034203142
-2.3060378
0.023804226
-2.4700641
0.016220391
-2.6433777
0.010854545
-2.8274507
0.0070825862
-3.0231072
0.0044168353
-3.2306319
0.0025360639
-3.4515306
0.0012443655
-3.6885269
0.00044058369
-3.9452397
2.6707647e-05
-4.2227545
0.10889315
-0.56386136
0.24322373
-0.63411849
0.28117659
-0.7176829
0.23994496
-0.80393919
0.13963261
-0.87848172
0.049886879
-0.93781976
0.012913957
-0.99524951
0.018758953
-1.0627127
0.047034229
-1.1455198
0.077978076
-1.2428524
0.099874025
-1.3536056
0.10862369
-1.475592
0.10479416
-1.6050619
0.091751369
-1.7391447
0.074026898
-1.8769114
0.055800552
-2.018973
0.039885232
-2.1664791
0.027468119
-2.3206055
0.018489666
-2.4828216
0.01226816
-2.6547909
0.0080069312
-2.8377132
0.0050594824
-3.0323113
0.0029916119
-3.2387775
0.0015487701
-3.4588515
0.00058793229
-3.6954152
4.6625438e-05
-3.9521579
-0.00015394916
-4.2297189
0.10208391
-0.52257461
0.25868415
-0.59019548
0.3066529
-0.67117386
0.26407196
-0.75526783
0.14941434
-0.82717439
0.041875853
-0.88139858
-0.0032312872
-0.93154647
0.0029848197
-0.9909739
0.037268791
-1.0660165
0.076166288
-1.1561557
0.10532706
-1.2603882
0.11944563
-1.3766484
0.11849821
-1.5009121
0.10579249
-1.6297817
0.086375581
-1.7617319
0.065336921
-1.8968274
0.046440104
-2.0361422
0.031536425
-2.1811166
0.020822089
-2.3331756
0.013555085
-2.4939051
0.0087378107
-2.6647697
0.0055147405
-2.8467359
0.003300064
-3.0403165
0.0017490236
-3.2458241
0.00068245645
-3.465155
7.5185771e-06
-3.7013971
-0.0003096024
-3.9582218
-0.00031542171
-4.2358696
0.095120125
-0.48345783
0.27453369
-0.54861504
0.33297916
-0.62737755
0.28904658
-0.70876526
0.15948727
-0.77793485
0.032570394
-0.82804314
-0.021900611
-0.87188249
-0.01553917
-0.92376598
0.025228581
-0.99130544
0.07294386
-1.0744847
0.11027856
-1.1724036
0.13068001
-1.2831682
0.13343105
-1.4025841
0.12159941
-1.5267917
0.10060934
-1.653676
0.076470092
-1.7826641
0.054057555
-1.9145036
0.036104474
-2.0508598
0.023220138
-2.1934642
0.014656327
-2.3438494
0.0091878881
-2.5034607
0.0056952059
-2.673497
0.0033864383
-2.8546105
0.0017928709
-3.0472812
0.00067487175
-3.251876
-7.1187557e-05
-3.4705582
-0.00050021325
-3.7065383
-0.00062612446
-3.9635381
-0.00046185428
-4.2413318
0.088285926
-0.44667162
0.29078671
-0.50926046
0.35948262
-0.585293
0.31472037
-0.66486953
0.16998218
-0.73103942
0.022318763
-0.77716438
-0.042981184
-0.81547048
-0.036722107
-0.86074016
0.010900406
-0.92113449
0.068281537
-0.99761572
0.11466111
-1.0894154
0.14224605
-1.1948683
0.14956931
-1.3097215
0.13926338
-1.4297331
0.11693483
-1.5522263
0.089458007
-1.6759352
0.0629565
-1.8010778
0.041290946
-1.9293212
0.025694761
-2.0628892
0.015503312
-2.2035999
0.0092505454
-2.352788
0.0054886872
-2.511682
0.0031538094
-2.6810955
0.0016043583
-2.8614758
0.0005153697
-3.0532785
-0.00024966878
-3.2570544
-0.00073307028
-3.4751253
-0.00094597332
-3.7109557
-0.00089999069
-3.9681675
-0.00058248739
-4.246143
0.074859741
-0.48259158
0.30747936
-0.47230955
0.38607652
-0.5453871
0.34059891
-0.62223137
0.18096982
-0.68686381
0.011747054
-0.72930997
-0.06605962
-0.76201138
-0.060259177
-0.80131807
-0.0056172647
-0.8552603
0.062194693
-0.92533696
0.11842411
-1.0112187
0.15404996
-1.1115026
0.16685143
-1.2220042
0.15883397
-1.3382052
0.13553562
-1.4569105
0.10456556
-1.5761196
0.073383687
-1.6953662
0.04724251
-1.8161105
0.028268375
-1.9409553
0.016021154
-2.072332
0.0087985092
-2.2117527
0.0047570512
-2.3602701
0.0024790433
-2.5187507
0.0010869725
-2.6877022
0.00013376846
-2.8674312
-0.00056068002
-3.058466
-0.0010417434
-3.2614301
-0.0013066088
-3.4789682
-0.0013369815
-3.7147112
-0.0011368064
-3.9722128
-0.00068653433
-4.2503944
0.062567799
-0.47528734
0.32032303
-0.50522274
0.41273403
-0.50789757
0.36617599
-0.58130307
0.19350606
-0.64504506
0.0015353623
-0.68490485
-0.090501115
-0.71226602
-0.085705718
-0.74533748
-0.023936389
-0.79339471
0.054759386
-0.85746577
0.12154023
-0.93762981
0.16599004
-1.032856
0.18517889
-1.1391497
0.18031064
-1.2518412
0.15656084
-1.3672898
0.12205554
-1.4827327
0.085611105
-1.5968848
0.054135061
-1.7108176
0.030979275
-1.8273539
0.016130325
-1.9495685
0.0076850738
-2.0795073
0.0033342075
-2.2182572
0.0012107302
-2.3665383
0.00011943225
-2.5248509
-0.00055826102
-2.6934596
-0.0010686369
-2.8726312
-0.0014650506
-3.062888
-0.0017222465
-3.2651161
-0.001804671
-3.4821699
-0.0016788367
-3.7179041
-0.0013429487
-3.9757143
-0.00077808333
-4.2541113
0.051253726
-0.46747671
0.33643005
-0.50118744
0.43606654
-0.53825427
0.39104151
-0.5424176
0.20585961
-0.60324776
-0.0071947014
-0.64402562
-0.11589309
-0.66643366
-0.11291425
-0.69326082
-0.043712241
-0.73533384
0.046171184
-0.79382685
0.1240002
-0.86848269
0.17795945
-0.95873992
0.20441864
-1.0609089
0.2036407
-1.1703057
0.18011383
-1.2829525
0.1421767
-1.3953187
0.099930799
-1.5051567
0.062177675
-1.6129962
0.033885635
-1.7217265
0.015750274
-1.8349803
0.0057435001
-1.9555432
0.0010266687
-2.0848301
-0.00083217657
-2.2234844
-0.0014464006
-2.371872
-0.0016693941
-2.5301629
-0.0018475301
-2.6985209
-0.002048503
-2.8771495
-0.0022262797
-3.0666739
-0.0023074943
-3.2681786
-0.0022375071
-3.4848231
-0.0019770445
-3.7206055
-0.0015227882
-3.9787632
-0.00085794295
-4.2573578
0.040612598
-0.45969506
0.35519526
-0.49603846
0.46230982
-0.53716773
0.41424415
-0.57181792
0.21674355
-0.56223501
-0.016065417
-0.60159062
-0.14270948
-0.62369512
-0.14193171
-0.64508558
-0.065046343
-0.68109409
0.036653154
-0.7342386
0.12581697
-0.80362168
0.18985075
-0.8889856
0.22440599
-0.98705923
0.22871544
-1.093297
0.20624505
-1.2035112
0.16515294
-1.3134345
0.1166461
-1.4197339
0.071610481
-1.5221989
0.03707123
-1.6236712
0.014803263
-1.7282757
0.0027910283
-1.8395731
-0.002389595
-1.9594823
-0.0038658156
-2.0887832
-0.0037868381
-2.2278005
-0.003331176
-2.3764812
-0.0029865965
-2.5348489
-0.0028502539
-2.7029838
-0.002849363
-2.8810849
-0.0028700925
-3.069868
-0.0028121557
-3.2707148
-0.002613747
-3.48701
-0.0022364684
-3.7229045
-0.0016788512
-3.9813896
-0.00092678513
-4.2601718
0.030377867
-0.45238625
0.37571647
-0.49001732
0.49091145
-0.53440688
0.4398024
-0.5731051
0.22788058
-0.59244647
-0.026245812
-0.55880421
-0.16942064
-0.58096649
-0.17282678
-0.59996906
-0.088013137
-0.63069772
0.026243646
-0.67853069
0.1270376
-0.74289668
0.20155136
-0.82343711
0.24495424
-0.91741193
0.25537328
-1.0205411
0.23494104
-1.1285999
0.19116983
-1.2366548
0.13606699
-1.3401767
0.082701457
-1.437998
0.04064463
-1.5327825
0.013220816
-1.6291042
-0.0013672135
-1.7312482
-0.0071675006
-1.8418492
-0.0081346704
-1.9619442
-0.0071068561
-2.0918462
-0.0056972392
-2.231482
-0.0045914737
-2.3805716
-0.0039358375
-2.5390288
-0.0036314645
-2.706932
-0.0035095646
-2.8844997
-0.0034184321
-3.0725762
-0.0032486142
-3.2727775
-0.0029405423
-3.4888156
-0.0024612061
-3.7248592
-0.001813177
-3.983672
-0.00098548473
-4.2625902
0.020374611
-0.44589363
0.39695702
-0.48343325
0.5211785
-0.53007418
0.46722442
-0.57221563
0.23966632
-0.59439989
-0.035566867
-0.59028343
-0.19523764
-0.53871011
-0.20313794
-0.55735557
-0.11193088
-0.5840611
0.014885071
-0.62663285
0.12771207
-0.68613957
0.2129506
-0.76194615
0.26585274
-0.8517859
0.28340227
-0.95180125
0.26612592
-1.0578851
0.22036124
-1.1645609
0.15848867
-1.2660422
0.095748898
-1.3599834
0.044745485
-1.4486519
0.010943413
-1.5370521
-0.0069439167
-1.6302087
-0.013585952
-1.731542
-0.013916964
-1.8425677
-0.011642481
-1.9635564
-0.0089438445
-2.0944051
-0.0067820388
-2.234801
-0.0053805664
-2.3842896
-0.0046136799
-2.5427953
-0.0042479477
-2.7104433
-0.0040611873
-2.8874797
-0.0038891825
-3.0748242
-0.0036269425
-3.2744532
-0.0032237361
-3.4903079
-0.0026547001
-3.726532
-0.0019276655
-3.9856164
-0.0010348466
-4.2646445
0.010532343
-0.44047811
0.41785297
-0.47660255
0.55214763
-0.52420813
0.49567582
-0.56890988
0.25159645
-0.59365777
-0.045206287
-0.5919912
-0.22137631
-0.57021006
-0.23134897
-0.51676689
-0.13583672
-0.54090908
0.0026050293
-0.57854748
0.12779777
-0.63318485
0.2239621
-0.70436867
0.28688082
-0.79002264
0.31254153
-0.88684667
0.29964781
-0.99105467
0.25280382
-1.0967619
0.18418729
-1.1968904
0.11105837
-1.2877155
0.049537483
-1.3708893
0.0079288664
-1.4517421
-0.014155641
-1.5360945
-0.021952794
-1.6281892
-0.021523781
-1.7301838
-0.017657115
-1.8425167
-0.013269043
-1.9648332
-0.0096921178
-2.0967873
-0.0072655968
-2.237932
-0.0058402554
-2.387747
-0.0051032308
-2.5462245
-0.0047462204
-2.7135838
-0.0045297049
-2.8900605
-0.004296378
-3.0766961
-0.0039551103
-3.2757995
-0.0034680657
-3.4915409
-0.0028198595
-3.7279478
-0.0020239985
-3.9872815
-0.0010756011
-4.2663523
0.00083101574
-0.4363189
0.4373885
-0.46983464
0.58266971
-0.51693948
0.5242069
-0.56311276
0.2629952
-0.58981979
-0.05565585
-0.59050422
-0.24681576
-0.57274151
-0.2636983
-0.54442613
-0.15879879
-0.50073035
-0.010423222
-0.53414661
0.12714468
-0.58392405
0.23450839
-0.65054292
0.30783383
-0.7319893
0.34252698
-0.82551685
0.3353078
-0.92783353
0.28850318
-1.0328715
0.21340667
-1.132297
0.12895259
-1.2207721
0.055206615
-1.2990785
0.0041538496
-1.3727999
-0.023210905
-1.4485432
-0.032585157
-1.5314488
-0.03128838
-1.624377
-0.025441622
-1.7281716
-0.018890694
-1.842349
-0.013466601
-1.9661579
-0.0096765703
-2.0992265
-0.007353569
-2.2410126
-0.0060907587
-2.3909999
-0.0054711628
-2.549364
-0.0051621865
-2.7163893
-0.0049343769
-2.8922905
-0.0046506404
-3.0782264
-0.0042393237
-3.2768743
-0.0036773917
-3.4925542
-0.0029591769
-3.7291561
-0.0021036695
-3.9886494
-0.0011084422
-4.2677515
-0.0087004739
-0.43352798
0.45462646
-0.46338724
0.61152409
-0.50850644
0.55176216
-0.55484975
0.27312656
-0.58275117
-0.067046492
-0.58579107
-0.27193472
-0.57169357
-0.29449813
-0.54862267
-0.19150562
-0.51884686
-0.023549436
-0.49339129
0.12557515
-0.53820125
0.2445232
-0.60036926
0.32856099
-0.67757599
0.37314286
-0.76772805
0.37294096
-0.86809459
0.32747755
-0.97262664
0.24639435
-1.0718789
0.14978538
-1.158757
0.061961387
-1.2328179
-0.00039698825
-1.2998169
-0.034342938
-1.3671556
-0.045819225
-1.4409547
-0.0435704
-1.5248039
-0.035307994
-1.6200412
-0.026042951
-1.7263296
-0.01825864
-1.8425356
-0.012699536
-1.9678397
-0.0091920202
-2.1018713
-0.0072177623
-2.2440803
-0.0062265132
-2.3940888
-0.0057674583
-2.55224
-0.005521929
-2.7188809
-0.0052890753
-2.8942041
-0.004959779
-3.0794786
-0.0044843706
-3.2777152
-0.0038548954
-3.4933919
-0.0030748261
-3.7301468
-0.0021680526
-3.9897735
-0.0011340249
-4.2688421
-0.43213931
-0.018030992
0.46876771
-0.45751016
0.63754109
-0.49921838
0.57727557
-0.54434865
0.2813297
-0.57255276
-0.079493125
-0.57773067
-0.2968685
-0.56727774
-0.32373808
-0.54923812
-0.22305551
-0.52424422
-0.050533054
-0.49775488
0.12327311
-0.49634546
0.25380534
-0.55355337
0.34897317
-0.6267446
0.40421141
-0.71341303
0.4123669
-0.81174229
0.36973387
-0.91588697
0.28344092
-1.0154105
0.1740507
-1.1014273
0.070158635
-1.1718583
-0.005698859
-1.2324274
-0.047743846
-1.2915562
-0.061986975
-1.3563201
-0.058753314
-1.4311073
-0.047590527
-1.5177819
-0.034972547
-1.6162467
-0.024224976
-1.7252623
-0.016417154
-1.8434377
-0.011385259
-1.9700193
-0.0084808965
-2.1047492
-0.0069901628
-2.2471574
-0.0063161486
-2.3970172
-0.0060268926
-2.5548569
-0.0058431584
-2.7210903
-0.0056032698
-2.8958452
-0.0052293897
-3.0804747
-0.0046939861
-3.2783684
-0.0040032635
-3.4940691
-0.0031687593
-3.7309578
-0.0022184207
-3.9906233
-0.0011529793
-4.2696605
-0.45244189
0.47921725
-0.43223526
-0.027034596
0.65967
-0.48944378
0.59970171
-0.53193991
0.28702014
-0.55952851
-0.092978729
-0.56655375
-0.32147631
-0.5596458
-0.35138099
-0.54650008
-0.25288771
-0.52659318
-0.077261694
-0.50343984
0.10484586
-0.48472428
0.26236695
-0.51063339
0.36887037
-0.57908635
0.43547679
-0.66245484
0.45325837
-0.75856394
0.41478248
-0.86205839
0.32431835
-0.96223181
0.20201201
-1.0483268
0.080358796
-1.1161597
-0.011515147
-1.1705932
-0.063606038
-1.2213779
-0.081443667
-1.2771415
-0.077217962
-1.3429076
-0.062634484
-1.4210565
-0.045934885
-1.5117578
-0.031521711
-1.6137638
-0.020903452
-1.7253393
-0.013949939
-1.8451537
-0.0098613939
-1.9727064
-0.0077250869
-2.1078399
-0.0067636206
-2.2502167
-0.0064052236
-2.3997746
-0.0062715056
-2.5572297
-0.0061368853
-2.7230373
-0.0058830754
-2.8972352
-0.0054634553
-3.0812646
-0.0048711433
-3.2788812
-0.0041248322
-3.4946133
-0.003242756
-3.7315443
-0.0022559812
-3.9912443
-0.001165901
-4.2702009
-0.47961231
0.67705189
-0.44820883
0.4853237
-0.43403097
-0.035866236
0.6180204
-0.51801834
0.28969107
-0.54408634
-0.10740454
-0.5526446
-0.34548059
-0.54916402
-0.37734795
-0.54060435
-0.28071671
-0.52585033
-0.1031269
-0.50666069
0.086195152
-0.49032265
0.25357258
-0.48182884
0.38826296
-0.53533827
0.46652442
-0.61428672
0.4949281
-0.70808066
0.46170606
-0.81049287
0.36740662
-0.91035433
0.23227695
-0.9971407
0.092064592
-1.0642133
-0.01752171
-1.1143633
-0.081829639
-1.156871
-0.10449028
-1.2031026
-0.099345464
-1.2598011
-0.08078803
-1.3294895
-0.05918668
-1.4125346
-0.040298833
-1.5076627
-0.026219237
-1.6129514
-0.016884918
-1.7266395
-0.011321094
-1.8476928
-0.0083750005
-1.9758441
-0.0070481192
-2.111101
-0.0065965614
-2.2532248
-0.0065202817
-2.4023429
-0.0065133621
-2.5593563
-0.0064091291
-2.7247393
-0.0061321897
-2.8983984
-0.0056648332
-3.0818971
-0.0050182947
-3.2792824
-0.0042216975
-3.4949959
-0.0032984888
-3.7319444
-0.0022818686
-3.9916068
-0.0011733654
-4.2705091
-0.50303182
0.63122954
-0.46963123
0.68870854
-0.44552417
0.48693376
-0.43763244
-0.044804495
0.28891713
-0.52670296
-0.12259981
-0.53648231
-0.36851402
-0.53630485
-0.40154467
-0.53193452
-0.30648313
-0.52199037
-0.12774551
-0.50716452
0.067572519
-0.49371013
0.24499667
-0.48786238
0.38967522
-0.48865037
0.49718881
-0.56988232
0.53664553
-0.65968295
0.50935521
-0.76047694
0.41115997
-0.85920162
0.26187909
-0.94430448
0.10212782
-1.0110539
-0.025388737
-1.0602348
-0.10247861
-1.0979203
-0.13137017
-1.1345093
-0.12552494
-1.1814594
-0.10238863
-1.2426864
-0.074979116
-1.3182142
-0.050694775
-1.4066613
-0.03240648
-1.5059133
-0.020166667
-1.6138777
-0.012798707
-1.7290956
-0.008861259
-1.8509501
-0.0070874041
-1.9793669
-0.0065230653
-2.1144494
-0.0065195941
-2.2561292
-0.0066733416
-2.4047046
-0.0067572758
-2.5612431
-0.0066624134
-2.7261972
-0.0063527057
-2.8993708
-0.0058356484
-3.0824118
-0.0051375675
-3.2795796
-0.0042957971
-3.4952444
-0.0033375215
-3.7321315
-0.002297176
-3.9917682
-0.0011759155
-4.2705789
-0.50793622
0.28438272
-0.48705935
0.6384975
-0.46118173
0.69462962
-0.44444677
0.48384708
-0.44329839
-0.054304198
-0.13830681
-0.51862934
-0.39013392
-0.52162221
-0.42386896
-0.52097333
-0.33032266
-0.51520711
-0.15095723
-0.50470448
0.049234487
-0.49462778
0.23652132
-0.49155588
0.39196241
-0.49571481
0.51020281
-0.50557301
0.57802354
-0.61469994
0.55720496
-0.71202126
0.45519241
-0.80921869
0.29027179
-0.89166581
0.10848844
-0.9542048
-0.038994764
-1.0010341
-0.12750133
-1.039136
-0.16241877
-1.0711522
-0.1562654
-1.1080689
-0.12779252
-1.1602974
-0.093542619
-1.2284324
-0.062829462
-1.3104399
-0.039483249
-1.4038996
-0.023744784
-1.506469
-0.014206179
-1.6163443
-0.0090801397
-1.7325581
-0.0067768932
-1.8548017
-0.0060874127
-1.9831233
-0.0061831544
-2.1177958
-0.0065425339
-2.2588813
-0.00686611
-2.4068434
-0.0070031509
-2.5628782
-0.0068970402
-2.7274364
-0.0065457234
-2.9001831
-0.0059776007
-3.0828264
-0.0052308814
-3.279792
-0.004348946
-3.4953464
-0.0033613571
-3.7321511
-0.0023029376
-3.9917066
-0.0011740718
-4.2704531
-0.4997527
-0.15415801
-0.4885495
0.27645359
-0.47192036
0.63913046
-0.45418094
0.69466388
-0.4447672
0.47539456
-0.45120823
-0.063330697
-0.40983582
-0.50573903
-0.44421835
-0.50827557
-0.35252079
-0.5058368
-0.17290413
-0.4991747
0.031471426
-0.49286079
0.22808796
-0.49270165
0.39497914
-0.50027464
0.52456321
-0.5140986
0.60504595
-0.53605935
0.60519751
-0.66692573
0.50037594
-0.76167202
0.31989755
-0.84265847
0.11300518
-0.89943333
-0.058022361
-0.93848072
-0.15956052
-0.97263171
-0.19831584
-1.0072961
-0.1919169
-1.0395769
-0.15755927
-1.0823056
-0.1151025
-1.1428419
-0.076793312
-1.2186588
-0.047438537
-1.3066306
-0.027538533
-1.4041042
-0.015426349
-1.5090514
-0.0089014551
-1.6201314
-0.0059879623
-1.7368209
-0.0051718621
-1.8590437
-0.0054076587
-1.9869781
-0.006032563
-2.1210427
-0.0066610986
-2.2614427
-0.0070936573
-2.4087382
-0.0072479408
-2.5642775
-0.0071120332
-2.7284676
-0.006711837
-2.9008543
-0.0060921596
-3.0831607
-0.0053000381
-3.2799249
-0.0043828889
-3.4953304
-0.0033714205
-3.7319697
-0.0023001537
-3.9914682
-0.0011683272
-4.2701184
-0.48932567
-0.42711016
-0.48139526
-0.16900793
-0.46953685
0.2646697
-0.45764257
0.63254505
-0.44856435
0.68880634
-0.44737305
0.46161488
-0.46060115
-0.071790505
-0.46254088
-0.49441487
-0.37348914
-0.49431231
-0.19403237
-0.49060917
0.01442262
-0.48814998
0.21983215
-0.49127841
0.39854113
-0.50209153
0.54014266
-0.51997741
0.63421769
-0.54687302
0.6480119
-0.58313366
0.54742631
-0.71819632
0.35306348
-0.79841597
0.12127706
-0.85391854
-0.076632457
-0.8838641
-0.19672821
-0.90471768
-0.23938532
-0.93540701
-0.23152081
-0.97155637
-0.19206188
-1.0088437
-0.14005312
-1.0612538
-0.092644479
-1.1310163
-0.056224145
-1.2138511
-0.031433693
-1.3065531
-0.016311911
-1.4068916
-0.0081681578
-1.5133294
-0.0045688078
-1.6249655
-0.0036384771
-1.7416401
-0.0040729939
-1.8634771
-0.0050411698
-1.990787
-0.0060563942
-2.1241369
-0.0068621793
-2.2637727
-0.007347296
-2.410387
-0.007487071
-2.5654383
-0.0073058872
-2.7293116
-0.0068514307
-2.9013898
-0.0061807166
-3.0834259
-0.0053467787
-3.2799947
-0.0043992972
-3.4951546
-0.0033691022
-3.7316288
-0.002289751
-3.9910358
-0.0011591428
-4.2696206
-0.4799423
-0.47890415
-0.47435056
-0.44102225
-0.46315159
-0.18311019
-0.45154446
0.24919081
-0.44500704
0.61900304
-0.44447562
0.67630853
-0.4516663
0.44271007
-0.47093069
-0.079687666
-0.39373072
-0.48111907
-0.21505647
-0.47917462
-0.0020210391
-0.48027779
0.2120139
-0.48714759
0.40257351
-0.50125111
0.55680489
-0.52297594
0.6652947
-0.55480069
0.69467569
-0.59798592
0.60499545
-0.64491399
0.39017083
-0.75865636
0.1346209
-0.81451555
-0.090575465
-0.8427744
-0.23252783
-0.85123558
-0.28452647
-0.86321887
-0.27349436
-0.89709526
-0.2296467
-0.93751086
-0.16881034
-0.98378014
-0.11050498
-1.0472565
-0.065748162
-1.1253109
-0.03527738
-1.2136327
-0.016685562
-1.3096629
-0.0066980946
-1.4118159
-0.0023457765
-1.5189262
-0.0013306717
-1.6304903
-0.0020437437
-1.7467382
-0.0034539611
-1.8679275
-0.0049559134
-1.9944721
-0.0062285455
-2.127007
-0.0071281762
-2.2658566
-0.0076166991
-2.4117839
-0.0077155245
-2.5663797
-0.0074769965
-2.7299629
-0.0069649129
-2.9018079
-0.0062446562
-3.0836353
-0.0053728107
-3.2799637
-0.0043998187
-3.4948517
-0.0033556979
-3.7311223
-0.0022725878
-3.9904576
-0.0011469205
-4.2689437
-0.46675461
-0.41380637
-0.46680969
-0.49339552
-0.4592374
-0.45180768
-0.4462312
-0.19615189
-0.43561146
0.23043269
-0.43461677
0.59922589
-0.44199334
0.65709876
-0.45736481
0.41914678
-0.48170215
-0.087048742
-0.23687389
-0.46517489
-0.018258464
-0.46911695
0.20492966
-0.48012581
0.40714806
-0.4977586
0.57440089
-0.52316227
0.69808703
-0.55964954
0.74489737
-0.60964804
0.66848082
-0.66584153
0.45534232
-0.71338736
0.15132686
-0.77791258
-0.10142679
-0.80624086
-0.26564408
-0.81260974
-0.33157249
-0.80763869
-0.31902923
-0.82115359
-0.26739238
-0.86266604
-0.20014613
-0.90966338
-0.1306476
-0.96733818
-0.075899967
-1.0407735
-0.038876735
-1.1251539
-0.016339112
-1.2172434
-0.0042879392
-1.3153458
0.000872411
-1.418344
0.0019234433
-1.5253833
0.00082837147
-1.6363938
-0.0011465335
-1.7519049
-0.0032562693
-1.8722621
-0.0051061711
-1.9979334
-0.0065179859
-2.1296261
-0.0074400263
-2.2676749
-0.0078914005
-2.4129391
-0.0079284655
-2.5670947
-0.0076239949
-2.7304469
-0.0070528136
-2.902115
-0.0062854235
-3.083769
-0.0053798546
-3.2798517
-0.004386003
-3.4944086
-0.003332407
-3.7304893
-0.0022494525
-3.9897174
-0.0011320371
-4.2681294
-0.44904801
-0.26044172
-0.45300623
-0.43444732
-0.45295129
-0.50659221
-0.44532933
-0.45956646
-0.43147831
-0.20801602
-0.42269398
0.20916325
-0.42647063
0.57385481
-0.44107921
0.63134771
-0.46411751
0.39153496
-0.4924442
-0.09381521
-0.034984172
-0.45467341
0.19882211
-0.47002905
0.41253342
-0.4916257
0.5928502
-0.52060565
0.73234318
-0.56142302
0.79857362
-0.61810519
0.73806125
-0.68373487
0.52810933
-0.74201157
0.20778511
-0.77232792
-0.11137177
-0.77034443
-0.29721743
-0.77741118
-0.37854391
-0.76890041
-0.3702764
-0.75967469
-0.30679736
-0.78485127
-0.23058339
-0.83551388
-0.15264278
-0.89120546
-0.086652866
-0.96010825
-0.04199705
-1.0409261
-0.015038493
-1.1295
-0.00071656708
-1.2238549
0.0052894807
-1.3229561
0.0063072325
-1.425913
0.0047009567
-1.5322581
0.0020121416
-1.6423793
-0.00084971913
-1.7569551
-0.0034056947
-1.8763669
-0.0054413376
-2.001123
-0.0068930287
-2.1319559
-0.007779273
-2.2692345
-0.0081617
-2.4138464
-0.0081216964
-2.567609
-0.0077458852
-2.7307617
-0.0071158991
-2.9023164
-0.0063045437
-3.0838318
-0.0053695546
-3.279621
-0.0043593004
-3.4938558
-0.0033003272
-3.7297104
-0.0022211066
-3.9888687
-0.0011147912
-4.2671546
-0.4371638
-0.053112397
-0.43212981
-0.28717253
-0.43816175
-0.45603143
-0.43968855
-0.51909009
-0.43296351
-0.46490323
-0.41956101
-0.21887474
-0.41320993
0.18656879
-0.42049226
0.54349126
-0.44165676
0.59950478
-0.47164978
0.36068048
-0.50272256
-0.099946324
0.1937951