/*--------------------------------*- C++ -*----------------------------------*\
| =========                 |                                                 |
| \\      /  F ield         | OpenFOAM: The Open Source CFD Toolbox           |
|  \\    /   O peration     | Version:  v2012                                 |
|   \\  /    A nd           | Website:  www.openfoam.com                      |
|    \\/     M anipulation  |                                                 |
\*---------------------------------------------------------------------------*/
FoamFile
{
    version     2.0;
    format      ascii;
    class       pointVectorField;
    location    "63.7469491763794949";
    object      pointDisplacement;
}
// * * * * * * * * * * * * * * * * * * * * * * * * * * * * * * * * * * * * * //

dimensions      [0 1 0 0 0 0 0];


internalField   nonuniform List<vector> 
18840
(
(-0.80050662 -0 -0)
(-0.80037895 0 0)
(-0.7999977 0 0)
(-0.79936614 0 0)
(-0.79848686 0 0)
(-0.79736176 0 0)
(-0.79599228 0 0)
(-0.79437944 0 0)
(-0.7925239 0 0)
(-0.79042595 0 0)
(-0.78808561 0 0)
(-0.78550261 0 0)
(-0.78267647 0 0)
(-0.7796065 0 0)
(-0.77629182 0 0)
(-0.77273143 0 0)
(-0.76892424 0 0)
(-0.76486922 0 0)
(-0.76056557 0 0)
(-0.75601019 0 0)
(-0.75025312 0 0)
(-0.80050662 -0 -0)
(-0.80037867 0 0)
(-0.79999664 0 0)
(-0.799364 0 0)
(-0.79848351 0 0)
(-0.79735722 0 0)
(-0.7959867 0 0)
(-0.79437315 0 0)
(-0.79251734 0 0)
(-0.79041973 0 0)
(-0.78808047 0 0)
(-0.78549946 0 0)
(-0.78267634 0 0)
(-0.77961058 0 0)
(-0.77630144 0 0)
(-0.77274805 0 0)
(-0.76894942 0 0)
(-0.76490451 0 0)
(-0.76061231 0 0)
(-0.75607037 0 0)
(-0.7512968 0 0)
(-0.80050662 -0 -0)
(-0.80037818 0 0)
(-0.79999483 0 0)
(-0.79936024 0 0)
(-0.79847736 0 0)
(-0.79734844 0 0)
(-0.79597521 0 0)
(-0.79435903 0 0)
(-0.79250084 0 0)
(-0.7904013 0 0)
(-0.78806071 0 0)
(-0.78547916 0 0)
(-0.78265646 0 0)
(-0.77959227 0 0)
(-0.77628601 0 0)
(-0.77273701 0 0)
(-0.76894441 0 0)
(-0.76490725 0 0)
(-0.76062441 0 0)
(-0.75609442 0 0)
(-0.75127103 0 0)
(-0.80050662 -0 -0)
(-0.80037777 0 0)
(-0.79999328 0 0)
(-0.79935704 0 0)
(-0.79847218 0 0)
(-0.79734112 0 0)
(-0.79596576 0 0)
(-0.79434764 0 0)
(-0.79248785 0 0)
(-0.79038723 0 0)
(-0.78804625 0 0)
(-0.7854652 0 0)
(-0.78264408 0 0)
(-0.77958274 0 0)
(-0.77628084 0 0)
(-0.77273792 0 0)
(-0.76895337 0 0)
(-0.76492652 0 0)
(-0.7606566 0 0)
(-0.7561424 0 0)
(-0.75128065 0 0)
(-0.80050662 -0 -0)
(-0.80037742 0 0)
(-0.79999198 0 0)
(-0.79935436 0 0)
(-0.79846789 0 0)
(-0.79733515 0 0)
(-0.79595819 0 0)
(-0.79433871 0 0)
(-0.79247797 0 0)
(-0.79037694 0 0)
(-0.7880363 0 0)
(-0.7854565 0 0)
(-0.78263775 0 0)
(-0.77958012 0 0)
(-0.77628348 0 0)
(-0.77274764 0 0)
(-0.7689723 0 0)
(-0.76495712 0 0)
(-0.76070176 0 0)
(-0.75620544 0 0)
(-0.75131354 0 0)
(-0.80050662 -0 -0)
(-0.80037713 0 0)
(-0.79999089 0 0)
(-0.79935216 0 0)
(-0.79846442 0 0)
(-0.79733041 0 0)
(-0.79595232 0 0)
(-0.79433198 0 0)
(-0.79247078 0 0)
(-0.79036987 0 0)
(-0.78803006 0 0)
(-0.78545198 0 0)
(-0.78263602 0 0)
(-0.77958246 0 0)
(-0.7762914 0 0)
(-0.77276289 0 0)
(-0.76899693 0 0)
(-0.7649935 0 0)
(-0.76075265 0 0)
(-0.75627396 0 0)
(-0.75135814 0 0)
(-0.80050662 -0 -0)
(-0.80037689 0 0)
(-0.79999002 0 0)
(-0.79935041 0 0)
(-0.79846174 0 0)
(-0.79732682 0 0)
(-0.79594801 0 0)
(-0.79432722 0 0)
(-0.79246599 0 0)
(-0.79036555 0 0)
(-0.78802686 0 0)
(-0.7854507 0 0)
(-0.78263762 0 0)
(-0.77958808 0 0)
(-0.77630237 0 0)
(-0.77278078 0 0)
(-0.76902352 0 0)
(-0.76503089 0 0)
(-0.76080322 0 0)
(-0.75634048 0 0)
(-0.75140585 0 0)
(-0.80050662 -0 -0)
(-0.8003767 0 0)
(-0.79998937 0 0)
(-0.79934915 0 0)
(-0.79845981 0 0)
(-0.79732436 0 0)
(-0.79594519 0 0)
(-0.79432433 0 0)
(-0.79246338 0 0)
(-0.79036368 0 0)
(-0.78802628 0 0)
(-0.78545206 0 0)
(-0.78264171 0 0)
(-0.77959581 0 0)
(-0.77631484 0 0)
(-0.77279924 0 0)
(-0.76904944 0 0)
(-0.76506592 0 0)
(-0.76084932 0 0)
(-0.75639988 0 0)
(-0.75145105 0 0)
(-0.80050662 -0 -0)
(-0.80037658 0 0)
(-0.79998894 0 0)
(-0.79934836 0 0)
(-0.79845867 0 0)
(-0.79732302 0 0)
(-0.79594386 0 0)
(-0.79432329 0 0)
(-0.79246294 0 0)
(-0.79036421 0 0)
(-0.78802821 0 0)
(-0.78545588 0 0)
(-0.782648 0 0)
(-0.77960524 0 0)
(-0.7763282 0 0)
(-0.77281742 0 0)
(-0.76907353 0 0)
(-0.76509711 0 0)
(-0.76088902 0 0)
(-0.75644982 0 0)
(-0.75149095 0 0)
(-0.80050662 -0 -0)
(-0.80037651 0 0)
(-0.79998872 0 0)
(-0.79934802 0 0)
(-0.79845833 0 0)
(-0.79732282 0 0)
(-0.79594406 0 0)
(-0.79432412 0 0)
(-0.79246472 0 0)
(-0.79036721 0 0)
(-0.78803274 0 0)
(-0.78546225 0 0)
(-0.78265659 0 0)
(-0.77961646 0 0)
(-0.77634251 0 0)
(-0.77283539 0 0)
(-0.76909575 0 0)
(-0.76512437 0 0)
(-0.7609221 0 0)
(-0.75648993 0 0)
(-0.75152501 0 0)
(-0.80050662 -0 -0)
(-0.80037624 0 0)
(-0.7999877 0 0)
(-0.79934591 0 0)
(-0.79845488 0 0)
(-0.79731786 0 0)
(-0.7959375 0 0)
(-0.79431589 0 0)
(-0.79245474 0 0)
(-0.79035541 0 0)
(-0.78801905 0 0)
(-0.78544659 0 0)
(-0.78263887 0 0)
(-0.7795966 0 0)
(-0.77632047 0 0)
(-0.77281114 0 0)
(-0.76906934 0 0)
(-0.76509588 0 0)
(-0.76089168 0 0)
(-0.75645796 0 0)
(-0.75148751 0 0)
(-0.80050662 -0 -0)
(-0.80037895 0 0)
(-0.7999977 0 0)
(-0.79936614 0 0)
(-0.79848686 0 0)
(-0.79736176 0 0)
(-0.79599228 0 0)
(-0.79437944 0 0)
(-0.7925239 0 0)
(-0.79042595 0 0)
(-0.78808561 0 0)
(-0.78550261 0 0)
(-0.78267647 0 0)
(-0.7796065 0 0)
(-0.77629182 0 0)
(-0.77273143 0 0)
(-0.76892424 0 0)
(-0.76486922 0 0)
(-0.76056557 0 0)
(-0.75601019 0 0)
(-0.75025312 0 0)
(-0.80050662 -0 -0)
(-0.80037867 0 0)
(-0.79999664 0 0)
(-0.799364 0 0)
(-0.79848351 0 0)
(-0.79735722 0 0)
(-0.7959867 0 0)
(-0.79437315 0 0)
(-0.79251734 0 0)
(-0.79041973 0 0)
(-0.78808047 0 0)
(-0.78549946 0 0)
(-0.78267634 0 0)
(-0.77961058 0 0)
(-0.77630144 0 0)
(-0.77274805 0 0)
(-0.76894942 0 0)
(-0.76490451 0 0)
(-0.76061231 0 0)
(-0.75607037 0 0)
(-0.7512968 0 0)
(-0.80050662 -0 -0)
(-0.80037818 0 0)
(-0.79999483 0 0)
(-0.79936024 0 0)
(-0.79847736 0 0)
(-0.79734844 0 0)
(-0.79597521 0 0)
(-0.79435903 0 0)
(-0.79250084 0 0)
(-0.7904013 0 0)
(-0.78806071 0 0)
(-0.78547916 0 0)
(-0.78265646 0 0)
(-0.77959227 0 0)
(-0.77628601 0 0)
(-0.77273701 0 0)
(-0.76894441 0 0)
(-0.76490725 0 0)
(-0.76062441 0 0)
(-0.75609442 0 0)
(-0.75127103 0 0)
(-0.80050662 -0 -0)
(-0.80037777 0 0)
(-0.79999328 0 0)
(-0.79935704 0 0)
(-0.79847218 0 0)
(-0.79734112 0 0)
(-0.79596576 0 0)
(-0.79434764 0 0)
(-0.79248785 0 0)
(-0.79038723 0 0)
(-0.78804625 0 0)
(-0.7854652 0 0)
(-0.78264408 0 0)
(-0.77958274 0 0)
(-0.77628084 0 0)
(-0.77273792 0 0)
(-0.76895337 0 0)
(-0.76492652 0 0)
(-0.7606566 0 0)
(-0.7561424 0 0)
(-0.75128065 0 0)
(-0.80050662 -0 -0)
(-0.80037742 0 0)
(-0.79999198 0 0)
(-0.79935436 0 0)
(-0.79846789 0 0)
(-0.79733515 0 0)
(-0.79595819 0 0)
(-0.79433871 0 0)
(-0.79247797 0 0)
(-0.79037694 0 0)
(-0.7880363 0 0)
(-0.7854565 0 0)
(-0.78263775 0 0)
(-0.77958012 0 0)
(-0.77628348 0 0)
(-0.77274764 0 0)
(-0.7689723 0 0)
(-0.76495712 0 0)
(-0.76070176 0 0)
(-0.75620544 0 0)
(-0.75131354 0 0)
(-0.80050662 -0 -0)
(-0.80037713 0 0)
(-0.79999089 0 0)
(-0.79935216 0 0)
(-0.79846442 0 0)
(-0.79733041 0 0)
(-0.79595232 0 0)
(-0.79433198 0 0)
(-0.79247078 0 0)
(-0.79036987 0 0)
(-0.78803006 0 0)
(-0.78545198 0 0)
(-0.78263602 0 0)
(-0.77958246 0 0)
(-0.7762914 0 0)
(-0.77276289 0 0)
(-0.76899693 0 0)
(-0.7649935 0 0)
(-0.76075265 0 0)
(-0.75627396 0 0)
(-0.75135814 0 0)
(-0.80050662 -0 -0)
(-0.80037689 0 0)
(-0.79999002 0 0)
(-0.79935041 0 0)
(-0.79846174 0 0)
(-0.79732682 0 0)
(-0.79594801 0 0)
(-0.79432722 0 0)
(-0.79246599 0 0)
(-0.79036555 0 0)
(-0.78802686 0 0)
(-0.7854507 0 0)
(-0.78263762 0 0)
(-0.77958808 0 0)
(-0.77630237 0 0)
(-0.77278078 0 0)
(-0.76902352 0 0)
(-0.76503089 0 0)
(-0.76080322 0 0)
(-0.75634048 0 0)
(-0.75140585 0 0)
(-0.80050662 -0 -0)
(-0.8003767 0 0)
(-0.79998937 0 0)
(-0.79934915 0 0)
(-0.79845981 0 0)
(-0.79732436 0 0)
(-0.79594519 0 0)
(-0.79432433 0 0)
(-0.79246338 0 0)
(-0.79036368 0 0)
(-0.78802628 0 0)
(-0.78545206 0 0)
(-0.78264171 0 0)
(-0.77959581 0 0)
(-0.77631484 0 0)
(-0.77279924 0 0)
(-0.76904944 0 0)
(-0.76506592 0 0)
(-0.76084932 0 0)
(-0.75639988 0 0)
(-0.75145105 0 0)
(-0.80050662 -0 -0)
(-0.80037658 0 0)
(-0.79998894 0 0)
(-0.79934836 0 0)
(-0.79845867 0 0)
(-0.79732302 0 0)
(-0.79594386 0 0)
(-0.79432329 0 0)
(-0.79246294 0 0)
(-0.79036421 0 0)
(-0.78802821 0 0)
(-0.78545588 0 0)
(-0.782648 0 0)
(-0.77960524 0 0)
(-0.7763282 0 0)
(-0.77281742 0 0)
(-0.76907353 0 0)
(-0.76509711 0 0)
(-0.76088902 0 0)
(-0.75644982 0 0)
(-0.75149095 0 0)
(-0.80050662 -0 -0)
(-0.80037651 0 0)
(-0.79998872 0 0)
(-0.79934802 0 0)
(-0.79845833 0 0)
(-0.79732282 0 0)
(-0.79594406 0 0)
(-0.79432412 0 0)
(-0.79246472 0 0)
(-0.79036721 0 0)
(-0.78803274 0 0)
(-0.78546225 0 0)
(-0.78265659 0 0)
(-0.77961646 0 0)
(-0.77634251 0 0)
(-0.77283539 0 0)
(-0.76909575 0 0)
(-0.76512437 0 0)
(-0.7609221 0 0)
(-0.75648993 0 0)
(-0.75152501 0 0)
(-0.80050662 -0 -0)
(-0.80037624 0 0)
(-0.7999877 0 0)
(-0.79934591 0 0)
(-0.79845488 0 0)
(-0.79731786 0 0)
(-0.7959375 0 0)
(-0.79431589 0 0)
(-0.79245474 0 0)
(-0.79035541 0 0)
(-0.78801905 0 0)
(-0.78544659 0 0)
(-0.78263887 0 0)
(-0.7795966 0 0)
(-0.77632047 0 0)
(-0.77281114 0 0)
(-0.76906934 0 0)
(-0.76509588 0 0)
(-0.76089168 0 0)
(-0.75645796 0 0)
(-0.75148751 0 0)
(-0.80050662 -0 -0)
(-0.80037832 0 0)
(-0.79999484 0 0)
(-0.79935879 0 0)
(-0.7984722 0 0)
(-0.79733652 0 0)
(-0.79595277 0 0)
(-0.79432165 0 0)
(-0.79244347 0 0)
(-0.79031831 0 0)
(-0.78794594 0 0)
(-0.78532601 0 0)
(-0.78245794 0 0)
(-0.77934106 0 0)
(-0.77597456 0 0)
(-0.77235757 0 0)
(-0.76848907 0 0)
(-0.764368 0 0)
(-0.7599932 0 0)
(-0.75535996 0 0)
(-0.75005525 0 0)
(-0.80050662 -0 -0)
(-0.80037837 0 0)
(-0.79999506 0 0)
(-0.79935935 0 0)
(-0.79847329 0 0)
(-0.79733834 0 0)
(-0.79595553 0 0)
(-0.79432551 0 0)
(-0.79244861 0 0)
(-0.79032488 0 0)
(-0.78795409 0 0)
(-0.78533584 0 0)
(-0.78246953 0 0)
(-0.77935448 0 0)
(-0.77598983 0 0)
(-0.77237467 0 0)
(-0.76850794 0 0)
(-0.76438854 0 0)
(-0.76001523 0 0)
(-0.75538332 0 0)
(-0.75008405 0 0)
(-0.80050662 -0 -0)
(-0.80037821 0 0)
(-0.79999449 0 0)
(-0.79935818 0 0)
(-0.7984714 0 0)
(-0.79733564 0 0)
(-0.79595193 0 0)
(-0.79432097 0 0)
(-0.79244307 0 0)
(-0.79031828 0 0)
(-0.78794638 0 0)
(-0.78532697 0 0)
(-0.78245944 0 0)
(-0.77934308 0 0)
(-0.77597701 0 0)
(-0.77236027 0 0)
(-0.76849178 0 0)
(-0.76437037 0 0)
(-0.75999477 0 0)
(-0.75536036 0 0)
(-0.75007324 0 0)
(-0.80050662 -0 -0)
(-0.80037812 0 0)
(-0.79999415 0 0)
(-0.79935752 0 0)
(-0.79847039 0 0)
(-0.79733429 0 0)
(-0.79595027 0 0)
(-0.79431904 0 0)
(-0.79244094 0 0)
(-0.79031602 0 0)
(-0.78794405 0 0)
(-0.78532462 0 0)
(-0.78245712 0 0)
(-0.7793408 0 0)
(-0.77597475 0 0)
(-0.77235797 0 0)
(-0.76848932 0 0)
(-0.76436755 0 0)
(-0.75999133 0 0)
(-0.75535619 0 0)
(-0.75009178 0 0)
(-0.80050662 -0 -0)
(-0.80037808 0 0)
(-0.79999404 0 0)
(-0.79935736 0 0)
(-0.79847027 0 0)
(-0.79733432 0 0)
(-0.7959506 0 0)
(-0.79431984 0 0)
(-0.79244239 0 0)
(-0.79031831 0 0)
(-0.78794737 0 0)
(-0.78532915 0 0)
(-0.78246302 0 0)
(-0.77934821 0 0)
(-0.77598375 0 0)
(-0.77236858 0 0)
(-0.7685015 0 0)
(-0.76438118 0 0)
(-0.76000619 0 0)
(-0.75537229 0 0)
(-0.75014108 0 0)
(-0.80050662 -0 -0)
(-0.80037811 0 0)
(-0.79999416 0 0)
(-0.79935772 0 0)
(-0.79847106 0 0)
(-0.79733578 0 0)
(-0.79595299 0 0)
(-0.79432346 0 0)
(-0.79244755 0 0)
(-0.79032533 0 0)
(-0.78795658 0 0)
(-0.78534088 0 0)
(-0.78247756 0 0)
(-0.77936582 0 0)
(-0.77600466 0 0)
(-0.77239294 0 0)
(-0.76852938 0 0)
(-0.76441256 0 0)
(-0.76004095 0 0)
(-0.75541057 0 0)
(-0.75022311 0 0)
(-0.80050662 -0 -0)
(-0.80037819 0 0)
(-0.79999451 0 0)
(-0.79935861 0 0)
(-0.7984728 0 0)
(-0.79733872 0 0)
(-0.79595753 0 0)
(-0.79433003 0 0)
(-0.7924566 0 0)
(-0.79033733 0 0)
(-0.78797201 0 0)
(-0.78536022 0 0)
(-0.78250128 0 0)
(-0.77939436 0 0)
(-0.77603841 0 0)
(-0.77243224 0 0)
(-0.76857449 0 0)
(-0.76446365 0 0)
(-0.76009806 0 0)
(-0.75547402 0 0)
(-0.75034102 0 0)
(-0.80050662 -0 -0)
(-0.80037833 0 0)
(-0.79999512 0 0)
(-0.79936006 0 0)
(-0.79847553 0 0)
(-0.79734321 0 0)
(-0.79596432 0 0)
(-0.79433968 0 0)
(-0.79246972 0 0)
(-0.79035456 0 0)
(-0.78799401 0 0)
(-0.78538765 0 0)
(-0.7825348 0 0)
(-0.77943463 0 0)
(-0.77608607 0 0)
(-0.77248789 0 0)
(-0.76863869 0 0)
(-0.7645369 0 0)
(-0.76018076 0 0)
(-0.75556681 0 0)
(-0.75049944 0 0)
(-0.80050662 -0 -0)
(-0.80037854 0 0)
(-0.79999599 0 0)
(-0.79936209 0 0)
(-0.79847929 0 0)
(-0.79734933 0 0)
(-0.79597346 0 0)
(-0.79435257 0 0)
(-0.79248713 0 0)
(-0.79037731 0 0)
(-0.78802295 0 0)
(-0.78542365 0 0)
(-0.78257878 0 0)
(-0.7794875 0 0)
(-0.77614876 0 0)
(-0.77256138 0 0)
(-0.76872397 0 0)
(-0.76463501 0 0)
(-0.76029279 0 0)
(-0.75569428 0 0)
(-0.75070496 0 0)
(-0.80050662 -0 -0)
(-0.80037882 0 0)
(-0.79999713 0 0)
(-0.79936474 0 0)
(-0.79848415 0 0)
(-0.79735713 0 0)
(-0.79598505 0 0)
(-0.79436882 0 0)
(-0.792509 0 0)
(-0.7904058 0 0)
(-0.78805912 0 0)
(-0.78546862 0 0)
(-0.78263371 0 0)
(-0.77955362 0 0)
(-0.77622734 0 0)
(-0.77265377 0 0)
(-0.76883166 0 0)
(-0.76475975 0 0)
(-0.76043685 0 0)
(-0.75586022 0 0)
(-0.75096378 0 0)
(-0.80050662 -0 -0)
(-0.80037832 0 0)
(-0.79999484 0 0)
(-0.79935879 0 0)
(-0.7984722 0 0)
(-0.79733652 0 0)
(-0.79595277 0 0)
(-0.79432165 0 0)
(-0.79244347 0 0)
(-0.79031831 0 0)
(-0.78794594 0 0)
(-0.78532601 0 0)
(-0.78245794 0 0)
(-0.77934106 0 0)
(-0.77597456 0 0)
(-0.77235757 0 0)
(-0.76848907 0 0)
(-0.764368 0 0)
(-0.7599932 0 0)
(-0.75535996 0 0)
(-0.75005525 0 0)
(-0.80050662 -0 -0)
(-0.80037837 0 0)
(-0.79999506 0 0)
(-0.79935935 0 0)
(-0.79847329 0 0)
(-0.79733834 0 0)
(-0.79595553 0 0)
(-0.79432551 0 0)
(-0.79244861 0 0)
(-0.79032488 0 0)
(-0.78795409 0 0)
(-0.78533584 0 0)
(-0.78246953 0 0)
(-0.77935448 0 0)
(-0.77598983 0 0)
(-0.77237467 0 0)
(-0.76850794 0 0)
(-0.76438854 0 0)
(-0.76001523 0 0)
(-0.75538332 0 0)
(-0.75008405 0 0)
(-0.80050662 -0 -0)
(-0.80037821 0 0)
(-0.79999449 0 0)
(-0.79935818 0 0)
(-0.7984714 0 0)
(-0.79733564 0 0)
(-0.79595193 0 0)
(-0.79432097 0 0)
(-0.79244307 0 0)
(-0.79031828 0 0)
(-0.78794638 0 0)
(-0.78532697 0 0)
(-0.78245944 0 0)
(-0.77934308 0 0)
(-0.77597701 0 0)
(-0.77236027 0 0)
(-0.76849178 0 0)
(-0.76437037 0 0)
(-0.75999477 0 0)
(-0.75536036 0 0)
(-0.75007324 0 0)
(-0.80050662 -0 -0)
(-0.80037812 0 0)
(-0.79999415 0 0)
(-0.79935752 0 0)
(-0.79847039 0 0)
(-0.79733429 0 0)
(-0.79595027 0 0)
(-0.79431904 0 0)
(-0.79244094 0 0)
(-0.79031602 0 0)
(-0.78794405 0 0)
(-0.78532462 0 0)
(-0.78245712 0 0)
(-0.7793408 0 0)
(-0.77597475 0 0)
(-0.77235797 0 0)
(-0.76848932 0 0)
(-0.76436755 0 0)
(-0.75999133 0 0)
(-0.75535619 0 0)
(-0.75009178 0 0)
(-0.80050662 -0 -0)
(-0.80037808 0 0)
(-0.79999404 0 0)
(-0.79935736 0 0)
(-0.79847027 0 0)
(-0.79733432 0 0)
(-0.7959506 0 0)
(-0.79431984 0 0)
(-0.79244239 0 0)
(-0.79031831 0 0)
(-0.78794737 0 0)
(-0.78532915 0 0)
(-0.78246302 0 0)
(-0.77934821 0 0)
(-0.77598375 0 0)
(-0.77236858 0 0)
(-0.7685015 0 0)
(-0.76438118 0 0)
(-0.76000619 0 0)
(-0.75537229 0 0)
(-0.75014108 0 0)
(-0.80050662 -0 -0)
(-0.80037811 0 0)
(-0.79999416 0 0)
(-0.79935772 0 0)
(-0.79847106 0 0)
(-0.79733578 0 0)
(-0.79595299 0 0)
(-0.79432346 0 0)
(-0.79244755 0 0)
(-0.79032533 0 0)
(-0.78795658 0 0)
(-0.78534088 0 0)
(-0.78247756 0 0)
(-0.77936582 0 0)
(-0.77600466 0 0)
(-0.77239294 0 0)
(-0.76852938 0 0)
(-0.76441256 0 0)
(-0.76004095 0 0)
(-0.75541057 0 0)
(-0.75022311 0 0)
(-0.80050662 -0 -0)
(-0.80037819 0 0)
(-0.79999451 0 0)
(-0.79935861 0 0)
(-0.7984728 0 0)
(-0.79733872 0 0)
(-0.79595753 0 0)
(-0.79433003 0 0)
(-0.7924566 0 0)
(-0.79033733 0 0)
(-0.78797201 0 0)
(-0.78536022 0 0)
(-0.78250128 0 0)
(-0.77939436 0 0)
(-0.77603841 0 0)
(-0.77243224 0 0)
(-0.76857449 0 0)
(-0.76446365 0 0)
(-0.76009806 0 0)
(-0.75547402 0 0)
(-0.75034102 0 0)
(-0.80050662 -0 -0)
(-0.80037833 0 0)
(-0.79999512 0 0)
(-0.79936006 0 0)
(-0.79847553 0 0)
(-0.79734321 0 0)
(-0.79596432 0 0)
(-0.79433968 0 0)
(-0.79246972 0 0)
(-0.79035456 0 0)
(-0.78799401 0 0)
(-0.78538765 0 0)
(-0.7825348 0 0)
(-0.77943463 0 0)
(-0.77608607 0 0)
(-0.77248789 0 0)
(-0.76863869 0 0)
(-0.7645369 0 0)
(-0.76018076 0 0)
(-0.75556681 0 0)
(-0.75049944 0 0)
(-0.80050662 -0 -0)
(-0.80037854 0 0)
(-0.79999599 0 0)
(-0.79936209 0 0)
(-0.79847929 0 0)
(-0.79734933 0 0)
(-0.79597346 0 0)
(-0.79435257 0 0)
(-0.79248713 0 0)
(-0.79037731 0 0)
(-0.78802295 0 0)
(-0.78542365 0 0)
(-0.78257878 0 0)
(-0.7794875 0 0)
(-0.77614876 0 0)
(-0.77256138 0 0)
(-0.76872397 0 0)
(-0.76463501 0 0)
(-0.76029279 0 0)
(-0.75569428 0 0)
(-0.75070496 0 0)
(-0.80050662 -0 -0)
(-0.80037882 0 0)
(-0.79999713 0 0)
(-0.79936474 0 0)
(-0.79848415 0 0)
(-0.79735713 0 0)
(-0.79598505 0 0)
(-0.79436882 0 0)
(-0.792509 0 0)
(-0.7904058 0 0)
(-0.78805912 0 0)
(-0.78546862 0 0)
(-0.78263371 0 0)
(-0.77955362 0 0)
(-0.77622734 0 0)
(-0.77265377 0 0)
(-0.76883166 0 0)
(-0.76475975 0 0)
(-0.76043685 0 0)
(-0.75586022 0 0)
(-0.75096378 0 0)
(-0.74355505 0 0)
(-0.73624572 0 0)
(-0.72854477 0 0)
(-0.72046512 0 0)
(-0.7120194 0 0)
(-0.70322622 0 0)
(-0.69410801 0 0)
(-0.68468422 0 0)
(-0.67497095 0 0)
(-0.66498486 0 0)
(-0.65474448 0 0)
(-0.64426738 0 0)
(-0.63356897 0 0)
(-0.62266182 0 0)
(-0.61155789 0 0)
(-0.60026757 0 0)
(-0.58880154 0 0)
(-0.57716922 0 0)
(-0.56536914 0 0)
(-0.55340391 0 0)
(-0.54127611 0 0)
(-0.52898191 0 0)
(-0.51650869 0 0)
(-0.50385053 0 0)
(-0.49101425 0 0)
(-0.47799806 0 0)
(-0.46476992 0 0)
(-0.451298 0 0)
(-0.43757719 0 0)
(-0.42359084 0 0)
(-0.40929087 0 0)
(-0.39462024 0 0)
(-0.37955066 0 0)
(-0.36404975 0 0)
(-0.34809389 0 0)
(-0.33170096 0 0)
(-0.31481386 0 0)
(-0.29728002 0 0)
(-0.27900735 0 0)
(-0.26002181 0 0)
(-0.24021547 0 0)
(-0.21938056 0 0)
(-0.19744686 0 0)
(-0.17432799 0 0)
(-0.14983362 0 0)
(-0.12375778 0 0)
(-0.095964751 0 0)
(-0.066305113 0 0)
(-0.034405636 0 0)
(0 0 0)
(-0.74359833 0 0)
(-0.73630745 0 0)
(-0.72862306 0 0)
(-0.72055739 0 0)
(-0.71212245 0 0)
(-0.70333631 0 0)
(-0.69422172 0 0)
(-0.68479922 0 0)
(-0.67508577 0 0)
(-0.66509836 0 0)
(-0.65485535 0 0)
(-0.64437447 0 0)
(-0.63367115 0 0)
(-0.6227583 0 0)
(-0.61164809 0 0)
(-0.60035079 0 0)
(-0.58887658 0 0)
(-0.57723481 0 0)
(-0.5654257 0 0)
(-0.55345211 0 0)
(-0.54131697 0 0)
(-0.52901634 0 0)
(-0.51653714 0 0)
(-0.50387273 0 0)
(-0.49103047 0 0)
(-0.47800912 0 0)
(-0.46477677 0 0)
(-0.45130069 0 0)
(-0.43757593 0 0)
(-0.42358653 0 0)
(-0.40928272 0 0)
(-0.39461027 0 0)
(-0.37954061 0 0)
(-0.36404003 0 0)
(-0.34808372 0 0)
(-0.33169004 0 0)
(-0.31480341 0 0)
(-0.29727026 0 0)
(-0.27899619 0 0)
(-0.26001035 0 0)
(-0.24020475 0 0)
(-0.21936696 0 0)
(-0.19743133 0 0)
(-0.17431366 0 0)
(-0.14982153 0 0)
(-0.12374726 0 0)
(-0.095955156 0 0)
(-0.066297866 0 0)
(-0.034401923 0 0)
(0 0 0)
(-0.7436286 0 0)
(-0.73639093 0 0)
(-0.72875597 0 0)
(-0.72073505 0 0)
(-0.71233942 0 0)
(-0.7035866 0 0)
(-0.69449923 0 0)
(-0.68509896 0 0)
(-0.67540388 0 0)
(-0.66543113 0 0)
(-0.65519905 0 0)
(-0.64472563 0 0)
(-0.63402692 0 0)
(-0.62311604 0 0)
(-0.61200503 0 0)
(-0.60070467 0 0)
(-0.58922518 0 0)
(-0.57757505 0 0)
(-0.56575647 0 0)
(-0.55377355 0 0)
(-0.54162903 0 0)
(-0.52931866 0 0)
(-0.51682959 0 0)
(-0.50415512 0 0)
(-0.49130257 0 0)
(-0.47827074 0 0)
(-0.46502852 0 0)
(-0.45154294 0 0)
(-0.43780866 0 0)
(-0.42380976 0 0)
(-0.40949564 0 0)
(-0.39481483 0 0)
(-0.37973779 0 0)
(-0.36423011 0 0)
(-0.34826615 0 0)
(-0.33186431 0 0)
(-0.31496998 0 0)
(-0.29742906 0 0)
(-0.27914554 0 0)
(-0.26015007 0 0)
(-0.24033361 0 0)
(-0.219481 0 0)
(-0.1975322 0 0)
(-0.17440349 0 0)
(-0.14989983 0 0)
(-0.12381263 0 0)
(-0.096005976 0 0)
(-0.066333312 0 0)
(-0.034420516 0 0)
(0 0 0)
(-0.74371566 0 0)
(-0.73656588 0 0)
(-0.72901292 0 0)
(-0.721067 0 0)
(-0.71273859 0 0)
(-0.70404442 0 0)
(-0.69500702 0 0)
(-0.68564887 0 0)
(-0.6759893 0 0)
(-0.66604582 0 0)
(-0.6558367 0 0)
(-0.64538038 0 0)
(-0.6346937 0 0)
(-0.62379032 0 0)
(-0.61268221 0 0)
(-0.60138064 0 0)
(-0.58989609 0 0)
(-0.57823694 0 0)
(-0.56640668 0 0)
(-0.55441058 0 0)
(-0.54225226 0 0)
(-0.52992706 0 0)
(-0.51742221 0 0)
(-0.50473114 0 0)
(-0.49186169 0 0)
(-0.47881271 0 0)
(-0.46555334 0 0)
(-0.45205048 0 0)
(-0.43829906 0 0)
(-0.42428321 0 0)
(-0.40995076 0 0)
(-0.39525297 0 0)
(-0.38016017 0 0)
(-0.36463685 0 0)
(-0.34865626 0 0)
(-0.33223719 0 0)
(-0.31532612 0 0)
(-0.29776814 0 0)
(-0.27946543 0 0)
(-0.26044946 0 0)
(-0.24061013 0 0)
(-0.21973017 0 0)
(-0.19775556 0 0)
(-0.17460285 0 0)
(-0.15007327 0 0)
(-0.12395744 0 0)
(-0.096119625 0 0)
(-0.066413111 0 0)
(-0.034462337 0 0)
(0 0 0)
(-0.7438605 0 0)
(-0.7368328 0 0)
(-0.72939401 0 0)
(-0.72155302 0 0)
(-0.71331949 0 0)
(-0.70470925 0 0)
(-0.69574457 0 0)
(-0.68644866 0 0)
(-0.67684187 0 0)
(-0.66694249 0 0)
(-0.65676868 0 0)
(-0.64633927 0 0)
(-0.63567219 0 0)
(-0.62478176 0 0)
(-0.61368001 0 0)
(-0.6023791 0 0)
(-0.59089004 0 0)
(-0.57922072 0 0)
(-0.56737646 0 0)
(-0.55536385 0 0)
(-0.54318692 0 0)
(-0.53084111 0 0)
(-0.51831428 0 0)
(-0.50560029 0 0)
(-0.49270712 0 0)
(-0.47963371 0 0)
(-0.46634964 0 0)
(-0.45282204 0 0)
(-0.43904579 0 0)
(-0.42500491 0 0)
(-0.41064637 0 0)
(-0.39592315 0 0)
(-0.38080563 0 0)
(-0.36525797 0 0)
(-0.34925215 0 0)
(-0.33280689 0 0)
(-0.3158695 0 0)
(-0.29828487 0 0)
(-0.27995402 0 0)
(-0.26090721 0 0)
(-0.24103239 0 0)
(-0.22011268 0 0)
(-0.19810026 0 0)
(-0.17491042 0 0)
(-0.15034038 0 0)
(-0.1241806 0 0)
(-0.096295389 0 0)
(-0.066536653 0 0)
(-0.034527019 0 0)
(0 0 0)
(-0.74406462 0 0)
(-0.73719263 0 0)
(-0.72989983 0 0)
(-0.72219348 0 0)
(-0.71408236 0 0)
(-0.70558144 0 0)
(-0.69671234 0 0)
(-0.68749862 0 0)
(-0.67796201 0 0)
(-0.66812184 0 0)
(-0.65799605 0 0)
(-0.64760348 0 0)
(-0.63696345 0 0)
(-0.62609143 0 0)
(-0.61499968 0 0)
(-0.60370107 0 0)
(-0.5922076 0 0)
(-0.58052727 0 0)
(-0.56866647 0 0)
(-0.55663338 0 0)
(-0.54443291 0 0)
(-0.53206072 0 0)
(-0.51950526 0 0)
(-0.5067612 0 0)
(-0.49383725 0 0)
(-0.48073231 0 0)
(-0.46741577 0 0)
(-0.45385505 0 0)
(-0.44004601 0 0)
(-0.42597247 0 0)
(-0.41157966 0 0)
(-0.39682221 0 0)
(-0.38167151 0 0)
(-0.36609086 0 0)
(-0.35005068 0 0)
(-0.33357005 0 0)
(-0.31659716 0 0)
(-0.29897655 0 0)
(-0.28060792 0 0)
(-0.26151968 0 0)
(-0.24159765 0 0)
(-0.22062625 0 0)
(-0.19856392 0 0)
(-0.17532439 0 0)
(-0.15069974 0 0)
(-0.12448063 0 0)
(-0.096531929 0 0)
(-0.066703105 0 0)
(-0.034614175 0 0)
(0 0 0)
(-0.74433064 0 0)
(-0.73764735 0 0)
(-0.73053192 0 0)
(-0.72298965 0 0)
(-0.71502846 0 0)
(-0.70666237 0 0)
(-0.69791184 0 0)
(-0.68880029 0 0)
(-0.67935095 0 0)
(-0.66958528 0 0)
(-0.65952096 0 0)
(-0.6491755 0 0)
(-0.63856984 0 0)
(-0.62772141 0 0)
(-0.61664311 0 0)
(-0.60534867 0 0)
(-0.59385075 0 0)
(-0.58215776 0 0)
(-0.57027781 0 0)
(-0.55822036 0 0)
(-0.54599075 0 0)
(-0.53358561 0 0)
(-0.52099465 0 0)
(-0.50821325 0 0)
(-0.4952507 0 0)
(-0.48210634 0 0)
(-0.46874932 0 0)
(-0.45514727 0 0)
(-0.44129708 0 0)
(-0.42718256 0 0)
(-0.41274751 0 0)
(-0.39794708 0 0)
(-0.38275405 0 0)
(-0.36713167 0 0)
(-0.35104852 0 0)
(-0.33452329 0 0)
(-0.31750504 0 0)
(-0.29983889 0 0)
(-0.28142376 0 0)
(-0.26228375 0 0)
(-0.24230252 0 0)
(-0.22126794 0 0)
(-0.19914423 0 0)
(-0.17584227 0 0)
(-0.15114894 0 0)
(-0.12485572 0 0)
(-0.096827902 0 0)
(-0.066911398 0 0)
(-0.034723123 0 0)
(0 0 0)
(-0.7446626 0 0)
(-0.73820013 0 0)
(-0.73129276 0 0)
(-0.72394343 0 0)
(-0.71615925 0 0)
(-0.70795364 0 0)
(-0.69934539 0 0)
(-0.69035595 0 0)
(-0.68101119 0 0)
(-0.67133686 0 0)
(-0.66134792 0 0)
(-0.65105882 0 0)
(-0.64049421 0 0)
(-0.6296746 0 0)
(-0.61861317 0 0)
(-0.60732438 0 0)
(-0.59582185 0 0)
(-0.58411448 0 0)
(-0.57221195 0 0)
(-0.56012563 0 0)
(-0.54786128 0 0)
(-0.53541628 0 0)
(-0.52278197 0 0)
(-0.50995506 0 0)
(-0.49694584 0 0)
(-0.48375396 0 0)
(-0.47034787 0 0)
(-0.45669543 0 0)
(-0.44279549 0 0)
(-0.42863188 0 0)
(-0.41414602 0 0)
(-0.39929366 0 0)
(-0.38404935 0 0)
(-0.36837636 0 0)
(-0.35224131 0 0)
(-0.33566215 0 0)
(-0.31858892 0 0)
(-0.30086769 0 0)
(-0.28239641 0 0)
(-0.26319432 0 0)
(-0.24314307 0 0)
(-0.22203432 0 0)
(-0.19983785 0 0)
(-0.17646134 0 0)
(-0.15168572 0 0)
(-0.12530368 0 0)
(-0.097181384 0 0)
(-0.067160202 0 0)
(-0.03485323 0 0)
(0 0 0)
(-0.74506667 0 0)
(-0.73885579 0 0)
(-0.7321861 0 0)
(-0.72505733 0 0)
(-0.7174774 0 0)
(-0.70945977 0 0)
(-0.70101909 0 0)
(-0.6921748 0 0)
(-0.68295374 0 0)
(-0.67338285 0 0)
(-0.6634788 0 0)
(-0.65325692 0 0)
(-0.64274213 0 0)
(-0.63195654 0 0)
(-0.6209149 0 0)
(-0.60963303 0 0)
(-0.59812501 0 0)
(-0.58639979 0 0)
(-0.57447051 0 0)
(-0.56235076 0 0)
(-0.55004549 0 0)
(-0.53755277 0 0)
(-0.52486664 0 0)
(-0.51198563 0 0)
(-0.49892094 0 0)
(-0.48567259 0 0)
(-0.47220838 0 0)
(-0.4584964 0 0)
(-0.44453759 0 0)
(-0.43031608 0 0)
(-0.41577105 0 0)
(-0.40085767 0 0)
(-0.38555244 0 0)
(-0.36981987 0 0)
(-0.3536245 0 0)
(-0.33698212 0 0)
(-0.31984356 0 0)
(-0.30205747 0 0)
(-0.28352113 0 0)
(-0.26424689 0 0)
(-0.24411473 0 0)
(-0.22292157 0 0)
(-0.20064164 0 0)
(-0.17717842 0 0)
(-0.15230707 0 0)
(-0.12582209 0 0)
(-0.097590526 0 0)
(-0.067448079 0 0)
(-0.035003652 0 0)
(0 0 0)
(-0.74555009 0 0)
(-0.73961982 0 0)
(-0.73321545 0 0)
(-0.72633621 0 0)
(-0.71899074 0 0)
(-0.71118717 0 0)
(-0.70293641 0 0)
(-0.69425919 0 0)
(-0.68517984 0 0)
(-0.67572433 0 0)
(-0.66591622 0 0)
(-0.65577313 0 0)
(-0.64531657 0 0)
(-0.63457025 0 0)
(-0.6235505 0 0)
(-0.61227355 0 0)
(-0.60075663 0 0)
(-0.58901131 0 0)
(-0.57705202 0 0)
(-0.56489402 0 0)
(-0.55254116 0 0)
(-0.53999188 0 0)
(-0.52724447 0 0)
(-0.51430008 0 0)
(-0.50117071 0 0)
(-0.48785674 0 0)
(-0.47432489 0 0)
(-0.46054348 0 0)
(-0.44651638 0 0)
(-0.43222833 0 0)
(-0.41761535 0 0)
(-0.40263194 0 0)
(-0.38725632 0 0)
(-0.37145524 0 0)
(-0.35519113 0 0)
(-0.33847621 0 0)
(-0.32126224 0 0)
(-0.30340161 0 0)
(-0.28479099 0 0)
(-0.26543476 0 0)
(-0.24521187 0 0)
(-0.22392479 0 0)
(-0.20155113 0 0)
(-0.17798971 0 0)
(-0.15300972 0 0)
(-0.12640802 0 0)
(-0.098052928 0 0)
(-0.067773366 0 0)
(-0.035173535 0 0)
(0 0 0)
(-0.7447883 0 0)
(-0.73913498 0 0)
(-0.73299896 0 0)
(-0.7263827 0 0)
(-0.71928974 0 0)
(-0.71171982 0 0)
(-0.70368506 0 0)
(-0.69520795 0 0)
(-0.68630867 0 0)
(-0.677011 0 0)
(-0.66734147 0 0)
(-0.65731885 0 0)
(-0.64696404 0 0)
(-0.6363012 0 0)
(-0.62534739 0 0)
(-0.61412041 0 0)
(-0.60264062 0 0)
(-0.59092086 0 0)
(-0.57897615 0 0)
(-0.56682184 0 0)
(-0.55446121 0 0)
(-0.54189541 0 0)
(-0.52912616 0 0)
(-0.51615526 0 0)
(-0.50299576 0 0)
(-0.48964883 0 0)
(-0.47608077 0 0)
(-0.46225982 0 0)
(-0.44819182 0 0)
(-0.43386291 0 0)
(-0.41920734 0 0)
(-0.40417829 0 0)
(-0.38875535 0 0)
(-0.37290739 0 0)
(-0.35659521 0 0)
(-0.33982622 0 0)
(-0.32255442 0 0)
(-0.3046358 0 0)
(-0.28596642 0 0)
(-0.26654116 0 0)
(-0.24624157 0 0)
(-0.22487422 0 0)
(-0.20241794 0 0)
(-0.17876839 0 0)
(-0.15368911 0 0)
(-0.12697918 0 0)
(-0.098507718 0 0)
(-0.068096796 0 0)
(-0.03534621 0 0)
(0 0 0)
(-0.74355505 0 0)
(-0.73624572 0 0)
(-0.72854477 0 0)
(-0.72046512 0 0)
(-0.7120194 0 0)
(-0.70322622 0 0)
(-0.69410801 0 0)
(-0.68468422 0 0)
(-0.67497095 0 0)
(-0.66498486 0 0)
(-0.65474448 0 0)
(-0.64426738 0 0)
(-0.63356897 0 0)
(-0.62266182 0 0)
(-0.61155789 0 0)
(-0.60026757 0 0)
(-0.58880154 0 0)
(-0.57716922 0 0)
(-0.56536914 0 0)
(-0.55340391 0 0)
(-0.54127611 0 0)
(-0.52898191 0 0)
(-0.51650869 0 0)
(-0.50385053 0 0)
(-0.49101425 0 0)
(-0.47799806 0 0)
(-0.46476992 0 0)
(-0.451298 0 0)
(-0.43757719 0 0)
(-0.42359084 0 0)
(-0.40929087 0 0)
(-0.39462024 0 0)
(-0.37955066 0 0)
(-0.36404975 0 0)
(-0.34809389 0 0)
(-0.33170096 0 0)
(-0.31481386 0 0)
(-0.29728002 0 0)
(-0.27900735 0 0)
(-0.26002181 0 0)
(-0.24021547 0 0)
(-0.21938056 0 0)
(-0.19744686 0 0)
(-0.17432799 0 0)
(-0.14983362 0 0)
(-0.12375778 0 0)
(-0.095964751 0 0)
(-0.066305113 0 0)
(-0.034405636 0 0)
(0 0 0)
(-0.74359833 0 0)
(-0.73630745 0 0)
(-0.72862306 0 0)
(-0.72055739 0 0)
(-0.71212245 0 0)
(-0.70333631 0 0)
(-0.69422172 0 0)
(-0.68479922 0 0)
(-0.67508577 0 0)
(-0.66509836 0 0)
(-0.65485535 0 0)
(-0.64437447 0 0)
(-0.63367115 0 0)
(-0.6227583 0 0)
(-0.61164809 0 0)
(-0.60035079 0 0)
(-0.58887658 0 0)
(-0.57723481 0 0)
(-0.5654257 0 0)
(-0.55345211 0 0)
(-0.54131697 0 0)
(-0.52901634 0 0)
(-0.51653714 0 0)
(-0.50387273 0 0)
(-0.49103047 0 0)
(-0.47800912 0 0)
(-0.46477677 0 0)
(-0.45130069 0 0)
(-0.43757593 0 0)
(-0.42358653 0 0)
(-0.40928272 0 0)
(-0.39461027 0 0)
(-0.37954061 0 0)
(-0.36404003 0 0)
(-0.34808372 0 0)
(-0.33169004 0 0)
(-0.31480341 0 0)
(-0.29727026 0 0)
(-0.27899619 0 0)
(-0.26001035 0 0)
(-0.24020475 0 0)
(-0.21936696 0 0)
(-0.19743133 0 0)
(-0.17431366 0 0)
(-0.14982153 0 0)
(-0.12374726 0 0)
(-0.095955156 0 0)
(-0.066297866 0 0)
(-0.034401923 0 0)
(0 0 0)
(-0.7436286 0 0)
(-0.73639093 0 0)
(-0.72875597 0 0)
(-0.72073505 0 0)
(-0.71233942 0 0)
(-0.7035866 0 0)
(-0.69449923 0 0)
(-0.68509896 0 0)
(-0.67540388 0 0)
(-0.66543113 0 0)
(-0.65519905 0 0)
(-0.64472563 0 0)
(-0.63402692 0 0)
(-0.62311604 0 0)
(-0.61200503 0 0)
(-0.60070467 0 0)
(-0.58922518 0 0)
(-0.57757505 0 0)
(-0.56575647 0 0)
(-0.55377355 0 0)
(-0.54162903 0 0)
(-0.52931866 0 0)
(-0.51682959 0 0)
(-0.50415512 0 0)
(-0.49130257 0 0)
(-0.47827074 0 0)
(-0.46502852 0 0)
(-0.45154294 0 0)
(-0.43780866 0 0)
(-0.42380976 0 0)
(-0.40949564 0 0)
(-0.39481483 0 0)
(-0.37973779 0 0)
(-0.36423011 0 0)
(-0.34826615 0 0)
(-0.33186431 0 0)
(-0.31496998 0 0)
(-0.29742906 0 0)
(-0.27914554 0 0)
(-0.26015007 0 0)
(-0.24033361 0 0)
(-0.219481 0 0)
(-0.1975322 0 0)
(-0.17440349 0 0)
(-0.14989983 0 0)
(-0.12381263 0 0)
(-0.096005976 0 0)
(-0.066333312 0 0)
(-0.034420516 0 0)
(0 0 0)
(-0.74371566 0 0)
(-0.73656588 0 0)
(-0.72901292 0 0)
(-0.721067 0 0)
(-0.71273859 0 0)
(-0.70404442 0 0)
(-0.69500702 0 0)
(-0.68564887 0 0)
(-0.6759893 0 0)
(-0.66604582 0 0)
(-0.6558367 0 0)
(-0.64538038 0 0)
(-0.6346937 0 0)
(-0.62379032 0 0)
(-0.61268221 0 0)
(-0.60138064 0 0)
(-0.58989609 0 0)
(-0.57823694 0 0)
(-0.56640668 0 0)
(-0.55441058 0 0)
(-0.54225226 0 0)
(-0.52992706 0 0)
(-0.51742221 0 0)
(-0.50473114 0 0)
(-0.49186169 0 0)
(-0.47881271 0 0)
(-0.46555334 0 0)
(-0.45205048 0 0)
(-0.43829906 0 0)
(-0.42428321 0 0)
(-0.40995076 0 0)
(-0.39525297 0 0)
(-0.38016017 0 0)
(-0.36463685 0 0)
(-0.34865626 0 0)
(-0.33223719 0 0)
(-0.31532612 0 0)
(-0.29776814 0 0)
(-0.27946543 0 0)
(-0.26044946 0 0)
(-0.24061013 0 0)
(-0.21973017 0 0)
(-0.19775556 0 0)