/*--------------------------------*- C++ -*----------------------------------*\
| =========                 |                                                 |
| \\      /  F ield         | OpenFOAM: The Open Source CFD Toolbox           |
|  \\    /   O peration     | Version:  v2012                                 |
|   \\  /    A nd           | Website:  www.openfoam.com                      |
|    \\/     M anipulation  |                                                 |
\*---------------------------------------------------------------------------*/
FoamFile
{
    version     2.0;
    format      ascii;
    class       volVectorField;
    location    "63.7469491763794949";
    object      U;
}
// * * * * * * * * * * * * * * * * * * * * * * * * * * * * * * * * * * * * * //

dimensions      [0 1 -1 0 0 0 0];


internalField   nonuniform List<vector> 
9200
(
(2.5261311 0.00052456174 2.2458809e-24)
(2.5233533 0.0016490558 -4.9378707e-22)
(2.5256504 -0.00087989213 0)
(2.5197429 0.0015640996 2.5615683e-22)
(2.5237022 -0.0028434028 -6.3643438e-22)
(2.5281863 -0.0012718364 -1.2013189e-23)
(2.5143092 0.00055380381 -2.3469789e-24)
(2.5215712 -0.005247739 2.1690929e-22)
(2.5265751 -0.0042981968 -1.9355962e-22)
(2.5308499 -0.0017686607 -1.4156771e-23)
(2.5082416 -0.0017860397 -7.9590577e-24)
(2.5181491 -0.008479644 -2.9171487e-22)
(2.5248737 -0.0074060606 -1.1076383e-23)
(2.5296869 -0.0059361205 -9.5386477e-23)
(2.534394 -0.0021394495 -4.3887068e-22)
(2.5015315 -0.005466759 -3.4956705e-22)
(2.5145386 -0.012365349 7.1539268e-22)
(2.5221174 -0.011315631 2.8239229e-22)
(2.5285339 -0.0098499419 5.0474605e-22)
(2.5335688 -0.007064386 7.1962092e-23)
(2.538236 -0.0024190942 4.027568e-23)
(2.4947274 -0.010378932 -6.7669193e-22)
(2.5105945 -0.017215281 4.6757124e-22)
(2.5192149 -0.015591072 -4.4237182e-23)
(2.5266275 -0.01451807 -5.4900549e-23)
(2.5327966 -0.011537023 6.3752807e-22)
(2.537702 -0.0079264122 6.5564328e-22)
(2.5423258 -0.0026052781 1.4856563e-22)
(2.4880262 -0.01648686 1.9963691e-23)
(2.5067095 -0.022711605 -1.053474e-21)
(2.5160629 -0.020692072 -4.0917415e-22)
(2.5246752 -0.019261433 2.5626839e-22)
(2.5314852 -0.016716784 -7.6578702e-24)
(2.5372677 -0.012828396 -4.5884535e-22)
(2.542046 -0.0085205378 -7.2986341e-23)
(2.5464838 -0.002720353 -2.2366007e-23)
(2.4816876 -0.023526485 4.1213707e-22)
(2.5029548 -0.028949393 1.5705699e-21)
(2.5129842 -0.026231291 2.865666e-22)
(2.5225975 -0.024674016 7.4208029e-23)
(2.5301691 -0.02176961 -3.1806346e-24)
(2.5364683 -0.018401775 -9.9550857e-22)
(2.5418946 -0.01372068 -1.7985858e-22)
(2.5464381 -0.0088957804 -7.094395e-23)
(2.5506196 -0.0027757682 3.2064145e-22)
(2.4758263 -0.031307296 -2.220913e-22)
(2.4994487 -0.035685807 5.6126526e-23)
(2.5100733 -0.032388417 -5.3546201e-23)
(2.5206494 -0.030295959 -1.3445421e-22)
(2.5287841 -0.027360777 -7.3866485e-22)
(2.5356888 -0.023698442 8.8084668e-23)
(2.541524 -0.019576556 8.1835417e-22)
(2.5465443 -0.014287404 -5.8334929e-23)
(2.5507932 -0.00908461 4.315092e-24)
(2.5546491 -0.002778861 1.2640503e-22)
(2.4704719 -0.03956981 -8.7003506e-22)
(2.4962299 -0.042891254 -2.2737919e-22)
(2.5074703 -0.038954357 -8.4591282e-22)
(2.5189184 -0.036340177 -8.5635705e-22)
(2.5275257 -0.032970573 -5.1957233e-23)
(2.534863 -0.029431557 1.9512885e-21)
(2.5411762 -0.025064521 1.5567355e-21)
(2.546567 -0.020339655 4.0439542e-22)
(2.5511477 -0.014574106 5.3351509e-22)
(2.5550322 -0.0091159706 -8.0156331e-22)
(2.558513 -0.0027350063 -4.5720511e-22)
(2.4656469 -0.048128375 -3.7283873e-22)
(2.4933127 -0.050451688 -1.2919414e-21)
(2.5052475 -0.045962731 -5.7405382e-22)
(2.5175339 -0.042586671 -5.5332833e-22)
(2.5264707 -0.038815003 2.212799e-22)
(2.5341215 -0.035034131 -4.9236186e-22)
(2.5407772 -0.030932399 -8.0134689e-22)
(2.5466113 -0.025986662 3.817412e-22)
(2.5515548 -0.020746987 -1.2002298e-22)
(2.5556379 -0.014619908 -4.2630545e-23)
(2.5590977 -0.0090098068 3.4464302e-22)
(2.5621631 -0.0026482758 -7.0437492e-22)
(2.4613611 -0.056753838 -6.1036351e-22)
(2.4906464 -0.058317122 -7.1672311e-22)
(2.5034461 -0.053326948 3.7720352e-23)
(2.5165841 -0.049072634 -1.0579335e-22)
(2.5257423 -0.04464542 2.7979957e-22)
(2.533511 -0.040712845 -3.1501305e-22)
(2.5403831 -0.036584431 -1.6270846e-21)
(2.5465956 -0.032006948 -5.17762e-22)
(2.5519912 -0.026523802 1.2408704e-22)
(2.5564414 -0.020841198 4.7561433e-22)
(2.5599622 -0.014451394 -6.1912981e-22)
(2.5629433 -0.0087784898 -3.9317267e-22)
(2.5655616 -0.0025226413 3.1766588e-22)
(2.4575412 -0.065212242 0)
(2.4881029 -0.066431802 -2.4630528e-22)
(2.5020795 -0.061060315 -2.676476e-22)
(2.5161614 -0.055719867 3.605712e-22)
(2.5254468 -0.050470027 4.5637963e-22)
(2.5331207 -0.046180262 -9.4559295e-23)
(2.5399933 -0.042220078 9.0321779e-22)
(2.5464961 -0.037800008 -5.824039e-22)
(2.5523758 -0.032712771 1.3474582e-21)
(2.5573021 -0.026709438 -8.9863064e-22)
(2.5611823 -0.020645568 5.3630127e-22)
(2.5640724 -0.014086591 -3.5211136e-22)
(2.5665319 -0.0084306239 2.9957348e-22)
(2.5686786 -0.0023635206 1.3176171e-21)
(2.4540645 -0.073280259 -3.3021071e-22)
(2.4855514 -0.074759665 1.1984001e-22)
(2.5011124 -0.069166475 4.1692067e-22)
(2.5163486 -0.062594268 -5.6987223e-22)
(2.5257211 -0.0561749 -3.8206701e-22)
(2.5330371 -0.051390131 8.0999287e-22)
(2.5396384 -0.04752006 1.2041849e-21)
(2.5462582 -0.043571844 -3.4704726e-22)
(2.5526081 -0.038733476 -1.8612698e-22)
(2.5581529 -0.033060003 1.7356571e-22)
(2.5625131 -0.026548686 -2.6184024e-22)
(2.5657264 -0.020172033 6.6384125e-22)
(2.5679263 -0.013539853 -9.8415653e-22)
(2.5698343 -0.0079768199 -1.4133181e-22)
(2.5714939 -0.0021782592 -4.4660791e-22)
(2.4507716 -0.080779019 -1.6123106e-21)
(2.4828126 -0.083309295 -7.261852e-23)
(2.5005437 -0.07771914 4.5503374e-22)
(2.5172077 -0.069674237 1.1285386e-21)
(2.5266809 -0.061783205 1.7494481e-21)
(2.5333746 -0.056184338 4.4881503e-22)
(2.5393506 -0.052400692 -6.4975293e-22)
(2.5458387 -0.048996133 9.2212986e-23)
(2.5525857 -0.04481624 -1.5711644e-21)
(2.5588276 -0.039352963 4.9029911e-22)
(2.5639165 -0.033016159 -3.8763369e-22)
(2.5675698 -0.026032759 1.9455702e-22)
(2.570019 -0.01943004 -4.4950621e-22)
(2.5714872 -0.01282698 4.2526819e-22)
(2.5728288 -0.007433943 -2.7502046e-22)
(2.5739984 -0.0019752282 -4.0624502e-22)
(2.4474808 -0.087533914 2.1876581e-21)
(2.4796785 -0.092091514 -1.8142482e-22)
(2.5002731 -0.086813052 -6.6704346e-23)
(2.5188702 -0.077145021 1.4541112e-22)
(2.5285049 -0.067148487 -6.2242699e-22)
(2.5342379 -0.060463869 -7.0696736e-22)
(2.5391767 -0.056667081 -1.3394146e-21)
(2.5451898 -0.053984325 -2.7724304e-21)
(2.5521922 -0.050661358 -2.916822e-22)
(2.5591933 -0.045857209 -1.2582696e-21)
(2.565178 -0.039562116 1.8487498e-22)
(2.5696079 -0.032531402 -5.4207117e-22)
(2.572401 -0.025153873 1.2026515e-21)
(2.5740056 -0.018434851 -1.5069117e-21)
(2.5747256 -0.011968199 3.6534144e-22)
(2.5755016 -0.0068249695 1.391805e-21)
(2.5761932 -0.001762205 -7.7424825e-23)
(2.4440096 -0.093340514 1.0657525e-21)
(2.4759675 -0.10109387 2.0878724e-21)
(2.5001919 -0.096561357 9.0551933e-23)
(2.5213631 -0.085015 -9.9858008e-22)
(2.5313734 -0.0725309 -8.7866467e-22)
(2.5358583 -0.063984877 -2.0575859e-21)
(2.5391918 -0.060077384 -1.5613545e-21)
(2.544268 -0.058299772 -7.6327486e-22)
(2.5512998 -0.056208552 2.1558416e-21)
(2.5590752 -0.052325997 9.6759137e-22)
(2.5661568 -0.04650057 -1.2535696e-21)
(2.571597 -0.039242233 7.1770724e-22)
(2.5751296 -0.031563515 -1.6333345e-21)
(2.5769271 -0.023917953 3.7551943e-22)
(2.5776377 -0.017212166 2.6784428e-23)
(2.5776197 -0.010988591 0)
(2.5778464 -0.0061742518 5.8853536e-22)
(2.5780874 -0.001544948 3.1665019e-21)
(2.4402799 -0.098235123 -2.841481e-21)
(2.4714506 -0.11041752 -2.6845071e-22)
(2.5002334 -0.10707909 -3.8204752e-23)
(2.5247183 -0.093561147 -7.301337e-22)
(2.5354709 -0.077594042 1.0350949e-21)
(2.5382857 -0.067001746 1.5997297e-21)
(2.5395367 -0.062465816 4.1262869e-22)
(2.5430712 -0.061657467 1.6512222e-21)
(2.5497797 -0.061228525 -4.4994598e-23)
(2.5582875 -0.058750776 1.8857354e-21)
(2.5666435 -0.053652772 2.1554685e-22)
(2.5734124 -0.046521557 -1.9286664e-21)
(2.5779511 -0.038292219 -1.2431153e-21)
(2.5803626 -0.030097776 1.8246397e-21)
(2.5810719 -0.022351245 5.9744329e-22)
(2.5808779 -0.015798531 1.7057396e-21)
(2.5801559 -0.0099165827 1.2958979e-21)
(2.5798647 -0.0055013719 -7.2009284e-23)
(2.5796974 -0.001326972 3.4802833e-22)
(2.4363577 -0.10198925 -1.5491915e-21)
(2.4657952 -0.12013793 -1.4308887e-21)
(2.5002481 -0.11855134 9.0556692e-22)
(2.5290359 -0.10288091 3.3807897e-21)
(2.5409602 -0.082806802 -2.2412065e-21)
(2.5418239 -0.068780113 7.8516164e-22)
(2.5400807 -0.06385993 2.7488287e-21)
(2.5415391 -0.064085127 5.6424315e-21)
(2.5475102 -0.065532162 -1.953894e-21)
(2.5566345 -0.064963844 3.0535618e-21)
(2.5664236 -0.061078749 -9.0746952e-22)
(2.5748373 -0.05426295 -9.7759742e-22)
(2.5807781 -0.045726699 1.2335186e-21)
(2.5840645 -0.036659204 -3.2572484e-21)
(2.5851866 -0.028156881 1.6023166e-21)
(2.5847724 -0.020500636 -8.7341178e-22)
(2.583703 -0.014238523 -2.1644758e-23)
(2.5823303 -0.0087815494 -8.519917e-23)
(2.5815656 -0.0048184205 -6.107448e-22)
(2.5810423 -0.0011107621 -3.1317132e-21)
(2.4319652 -0.10430802 -3.6909825e-21)
(2.4589346 -0.13002812 7.099813e-22)
(2.5001282 -0.13107059 4.8801834e-22)
(2.5343589 -0.11323039 4.6654896e-21)
(2.5480354 -0.087994166 1.1196124e-21)
(2.5467363 -0.069891771 1.0091501e-21)
(2.5411183 -0.063439745 7.3671586e-22)
(2.5396724 -0.064536401 -6.1360645e-22)
(2.5443054 -0.068966175 -9.5379626e-22)
(2.5539024 -0.070856089 -5.0241353e-21)
(2.5652599 -0.068696119 4.01014e-22)
(2.575661 -0.062600873 2.1577763e-21)
(2.5834126 -0.053826475 -1.6148679e-21)
(2.5879974 -0.044000353 -2.4466644e-22)
(2.5897512 -0.034353582 3.0671335e-21)
(2.5894975 -0.02580092 -4.9393282e-22)
(2.587986 -0.018429194 3.4355772e-23)
(2.5861062 -0.012580315 -5.8676211e-22)
(2.58415 -0.0076115831 -1.452135e-21)
(2.5829649 -0.0041327035 0)
(2.5821331 -0.00089833533 0)
(2.4269382 -0.10521756 4.6037303e-21)
(2.4503066 -0.14033237 3.0399668e-21)
(2.4997163 -0.14482008 -6.8598766e-22)
(2.5407299 -0.12479779 -9.1596625e-22)
(2.5569382 -0.093382895 1.0997086e-21)
(2.5531194 -0.069904716 -6.2390845e-22)
(2.5429672 -0.061454828 -1.4789287e-21)
(2.5374751 -0.064241812 -4.3268224e-21)
(2.5402387 -0.071019086 -8.1403924e-22)
(2.5498813 -0.076233374 -2.3938578e-21)
(2.5628959 -0.076467096 4.1420822e-21)
(2.5756396 -0.071543164 -2.2226192e-21)
(2.5856792 -0.062792366 -2.4578373e-22)
(2.5920036 -0.052130892 -1.6661141e-21)
(2.594789 -0.041327668 -2.4889094e-21)
(2.5948446 -0.031448897 1.3703053e-21)
(2.5932213 -0.023119749 -1.0328342e-22)
(2.5906942 -0.016209027 3.8169731e-21)
(2.5880962 -0.01087116 -9.9881327e-23)
(2.5856317 -0.0064319525 -1.8532729e-21)
(2.5840827 -0.0034497769 1.7289315e-21)
(2.5829832 -0.0006899218 -2.4216578e-21)
(2.4201749 -0.10476923 1.3432783e-20)
(2.4399737 -0.15115791 -6.3723623e-22)
(2.4989986 -0.15997989 -2.218585e-22)
(2.5481867 -0.13780923 -9.3347824e-21)
(2.5678368 -0.099075734 7.5011765e-21)
(2.561253 -0.068842013 5.2383548e-22)
(2.5455874 -0.057709582 -8.8304485e-22)
(2.5350044 -0.061534238 -1.0699882e-21)
(2.5350769 -0.071937083 -4.4234722e-22)
(2.5444047 -0.080988503 3.9259748e-21)
(2.5590817 -0.084308818 1.726563e-21)
(2.5745118 -0.081145165 -5.5569679e-21)
(2.587364 -0.072716671 5.8208019e-22)
(2.5959689 -0.061298198 -1.2922606e-21)
(2.6001951 -0.049116401 9.418462e-22)
(2.6008925 -0.037795256 1.1883404e-21)
(2.5992198 -0.028069953 1.1345113e-22)
(2.5963202 -0.020220897 1.5640315e-21)
(2.5929025 -0.013913383 -1.6757537e-21)
(2.5896948 -0.0091535023 -5.5344662e-21)
(2.5868 -0.0052638743 1.4063379e-23)
(2.5849412 -0.0027727046 -1.3417278e-22)
(2.5836339 -0.00048533939 -6.6322915e-22)
(2.4123606 -0.10312841 7.0859926e-22)
(2.4286628 -0.16234972 -3.685646e-21)
(2.4977123 -0.17658176 -1.0718531e-22)
(2.5566598 -0.15244408 -6.3777258e-21)
(2.5809009 -0.10520066 1.9454447e-21)
(2.5713528 -0.066649067 4.8881078e-21)
(2.5491101 -0.051936302 -1.2758218e-22)
(2.5323095 -0.056837988 1.4060154e-21)
(2.5285949 -0.071069617 3.2613049e-21)
(2.5372476 -0.084790017 8.322103e-22)
(2.5535351 -0.092140303 -2.2419174e-21)
(2.5720025 -0.091429726 -3.0581786e-21)
(2.5882372 -0.083748065 5.560894e-21)
(2.5997413 -0.071661042 -6.1626954e-22)
(2.6059343 -0.057984938 -2.8310446e-21)
(2.6075925 -0.044879285 9.377892e-22)
(2.6061058 -0.033574103 5.0974357e-22)
(2.6028068 -0.024373586 -1.4190565e-22)
(2.5987938 -0.01721596 -2.493762e-21)
(2.5946367 -0.011609365 -3.1906567e-21)
(2.5909335 -0.0074620778 1.6569536e-21)
(2.5876855 -0.0041234082 -7.2694817e-22)
(2.5855645 -0.0021055289 -1.6346768e-21)
(2.5841102 -0.00028447331 2.2729203e-21)
(2.4034404 -0.10023114 -1.7381333e-20)
(2.4154661 -0.17413739 -4.0071414e-21)
(2.495872 -0.19471481 3.5375575e-22)
(2.5661413 -0.16888592 9.8865025e-22)
(2.5962775 -0.11190716 -1.6262591e-20)
(2.5836112 -0.063291578 -6.3221365e-21)
(2.5536861 -0.043987124 7.892734e-23)
(2.5293608 -0.049760395 9.0653131e-22)
(2.5208587 -0.068344684 1.0026622e-21)
(2.5281923 -0.087589338 -7.8227799e-21)
(2.5460102 -0.099849732 -1.9647978e-21)
(2.5678265 -0.10240636 2.4160231e-21)
(2.588047 -0.096010923 1.5291812e-21)
(2.6031586 -0.083444065 3.222618e-21)
(2.6119383 -0.068129007 -3.2762102e-21)
(2.6149925 -0.05295005 5.5440133e-23)
(2.6138786 -0.039649169 3.3100633e-21)
(2.6103072 -0.028890364 -7.1006586e-22)
(2.6055933 -0.020526493 -2.4380866e-21)
(2.6006745 -0.014207998 3.8548303e-22)
(2.5959385 -0.0093523716 2.3441929e-22)
(2.5918498 -0.0058226424 6.2626162e-21)
(2.5883201 -0.0030212113 2.9474463e-22)
(2.5859796 -0.001460828 3.3449086e-23)
(2.5843479 -4.0301836e-05 -1.0308661e-22)
(2.3928646 -0.096400848 -3.6847827e-21)
(2.4008323 -0.18634117 4.0999858e-21)
(2.4935649 -0.21439852 3.8276658e-21)
(2.576643 -0.18731273 1.1424814e-20)
(2.6140851 -0.11932186 -9.1307716e-21)
(2.5981647 -0.058710245 -1.4200864e-22)
(2.5594074 -0.033776932 2.663365e-21)
(2.5261979 -0.040104522 5.4899347e-21)
(2.5117811 -0.063556328 -1.2185156e-20)
(2.5171081 -0.089178844 -2.5029242e-20)
(2.5362854 -0.1073381 -4.8753423e-21)
(2.5617028 -0.11408399 1.4455294e-20)
(2.5865272 -0.10962719 -7.7365992e-21)
(2.6060347 -0.096862117 3.8741501e-21)
(2.6181424 -0.079818455 -1.3429066e-21)
(2.6231174 -0.062202842 -3.5715138e-26)
(2.6226602 -0.046494649 -1.773954e-21)
(2.6188524 -0.03374693 -7.0519122e-22)
(2.6134634 -0.023990506 6.4018941e-23)
(2.6076184 -0.016684318 -9.1267639e-22)
(2.602019 -0.011281968 -5.5982099e-22)
(2.5968588 -0.0071830902 -2.6327224e-22)
(2.5924833 -0.0042522796 -3.6027506e-21)
(2.5887328 -0.0019632346 2.1210802e-21)
(2.5862194 -0.00084725855 0)
(2.5844326 0.00018955718 4.8440039e-23)
(2.3790817 -0.091494302 5.0357689e-20)
(2.3843542 -0.19910039 6.6351834e-21)
(2.4902917 -0.23550813 -2.2488994e-21)
(2.5878127 -0.20754449 0)
(2.6339691 -0.12758664 0)
(2.6151526 -0.052864078 1.1806134e-20)
(2.566342 -0.021125694 -3.7950201e-21)
(2.5228232 -0.027780477 4.8793917e-21)
(2.5012995 -0.056503806 -4.4049204e-21)
(2.503882 -0.089419972 1.088366e-20)
(2.524144 -0.11449634 1.1215631e-20)
(2.5533638 -0.12642746 4.6689587e-21)
(2.5834017 -0.12469833 -5.1903945e-21)
(2.6081617 -0.11213671 -5.9892876e-21)
(2.6244619 -0.09332973 2.5069593e-21)
(2.6320157 -0.072910082 -2.6808665e-21)
(2.6325613 -0.054265991 4.2577443e-21)
(2.6286162 -0.039066117 8.7792047e-22)
(2.6224444 -0.0275319 -3.159326e-21)
(2.6156215 -0.019107553 0)
(2.608961 -0.012975606 2.0328513e-23)
(2.6028993 -0.0084994856 2.0388901e-21)
(2.5974522 -0.005127193 1.1023685e-22)
(2.5928727 -0.0027601136 -1.4770857e-21)
(2.5889486 -0.00095252619 0)
(2.5863093 -0.00024980112 4.8867354e-23)
(2.5843928 0.000375607 6.3454363e-22)
(2.3604675 -0.086233754 -9.9134457e-21)
(2.3653913 -0.21183267 -3.0926899e-21)
(2.4847893 -0.25758076 -4.8442567e-21)
(2.5976792 -0.22915621 -5.7920776e-20)
(2.6532902 -0.13652092 -4.4375745e-20)
(2.6341978 -0.045714915 -1.3127459e-20)
(2.5745372 -0.0059240969 7.2011439e-21)
(2.5192586 -0.012568495 -7.9836965e-21)
(2.4893592 -0.047089253 2.1665804e-20)
(2.4884164 -0.088176143 5.1127687e-21)
(2.5094289 -0.12121552 2.1238085e-20)
(2.5425718 -0.13939392 -3.348413e-21)
(2.5783929 -0.14129704 -3.4937522e-21)
(2.6093105 -0.12947798 4.1320743e-21)
(2.6307918 -0.10896103 -4.6661232e-21)
(2.6417287 -0.085365184 2.193325e-21)
(2.6437404 -0.063189704 -2.1491215e-21)
(2.6397718 -0.04492966 -6.3412102e-23)
(2.6327317 -0.031180985 1.8468204e-21)
(2.6247091 -0.02134885 9.2139696e-22)
(2.6168912 -0.014434666 2.815506e-23)
(2.609724 -0.0094928291 1.1335859e-21)
(2.6033929 -0.0058980081 4.4612032e-21)
(2.5977722 -0.0031969723 -1.1610828e-21)
(2.5930549 -0.0013482612 7.4107275e-22)
(2.5889914 8.4777299e-06 -1.165579e-22)
(2.5862538 0.00034101733 1.7096779e-21)
(2.5842237 0.00055606127 7.7388622e-22)
(2.336743 -0.080414503 -2.7329876e-20)
(2.3434946 -0.22533201 4.3180353e-21)
(2.4777127 -0.280344 -4.7765764e-22)
(2.6040159 -0.25148528 1.2636344e-20)
(2.6690312 -0.14604122 1.3507809e-19)
(2.6528036 -0.037232042 0)
(2.5834235 0.011771641 4.2925071e-21)
(2.5154741 0.0054957094 -1.0923791e-20)
(2.4759468 -0.03516764 -1.9806489e-20)
(2.4706518 -0.085360978 2.1409426e-20)
(2.4920312 -0.12739245 -1.8100931e-21)
(2.5291248 -0.15291412 5.3085626e-21)
(2.5712368 -0.15946309 -2.5542545e-22)
(2.6092332 -0.1490689 8.3459458e-21)
(2.6369988 -0.12701651 -5.736945e-21)
(2.6522889 -0.099899246 8.0464563e-22)
(2.6563679 -0.073520427 -1.2631613e-21)
(2.6525627 -0.051473472 -2.6857387e-21)
(2.6445256 -0.034924582 -3.8426586e-21)
(2.6350654 -0.023343696 -2.317388e-21)
(2.6257991 -0.015485391 -6.4300124e-23)
(2.6174215 -0.010110019 0)
(2.61002 -0.0062906788 -3.4953796e-21)
(2.6035756 -0.0034935602 -3.68643e-21)
(2.5978673 -0.0013941439 9.656285e-22)
(2.5930644 -1.399324e-05 2.1015428e-22)
(2.5888924 0.00092081981 1.0834966e-21)
(2.5860643 0.00091057475 7.8298373e-22)
(2.5839333 0.00074866538 -4.06163e-23)
(2.3090487 -0.075109709 -3.8225634e-21)
(2.3182679 -0.23863583 2.5403615e-21)
(2.4675011 -0.30375021 -4.2892566e-22)
(2.6092904 -0.27481845 6.7944991e-20)
(2.6822523 -0.15560989 6.7083459e-20)
(2.6685851 -0.027565102 3.2974779e-22)
(2.5909171 0.031994238 -2.607139e-20)
(2.5109553 0.026448647 3.5903865e-21)
(2.461004 -0.020749855 -2.0457824e-20)
(2.4505769 -0.080903996 2.502541e-20)
(2.4718961 -0.13293898 -1.6652755e-20)
(2.5128774 -0.16689934 -1.5595946e-20)
(2.5616886 -0.17918767 2.6841625e-21)
(2.6076677 -0.17106037 1.4017793e-21)
(2.6429168 -0.14778921 1.2501642e-21)
(2.6637067 -0.11686949 -2.4418198e-21)
(2.6706267 -0.085558979 9.5214718e-22)
(2.6672642 -0.058857638 1.5289496e-22)
(2.6581114 -0.038777441 -1.4840509e-21)
(2.6468772 -0.024979534 -1.1015257e-21)
(2.6358279 -0.015978935 1.5212442e-22)
(2.6259298 -0.010146817 0)
(2.6173774 -0.0062133999 0)
(2.6099592 -0.0033900613 -2.1071202e-21)
(2.6035167 -0.0012854011 -1.7200147e-21)
(2.5977788 0.00028667136 5.6730302e-21)
(2.5929248 0.0012475322 2.3582496e-21)
(2.588677 0.0017883227 -2.3211636e-22)
(2.5857648 0.0014439537 -3.8362672e-21)
(2.5835315 0.0009030821 -1.4063335e-21)
(2.2756462 -0.068441178 -7.06662e-21)
(2.2910586 -0.25302621 -1.5690285e-22)
(2.4542319 -0.32685401 -3.7233887e-21)
(2.6072207 -0.29789145 -2.1472253e-21)
(2.6944896 -0.1657815 -2.0940726e-19)
(2.682776 -0.016976788 -3.1366941e-20)
(2.595843 0.054638043 -2.3492491e-20)
(2.5039333 0.050151251 1.2834804e-21)
(2.4444111 -0.0038189552 1.8231374e-20)
(2.428194 -0.074826198 -5.3486824e-21)
(2.4490305 -0.1377773 2.3288135e-20)
(2.493739 -0.1812427 1.2712848e-20)
(2.5495421 -0.20042251 1.6350441e-20)
(2.6043465 -0.19554352 -4.9177784e-21)
(2.6483429 -0.17155361 3.6243263e-22)
(2.675958 -0.13664851 -2.2474186e-21)
(2.6866982 -0.09964848 1.4442235e-21)
(2.6841904 -0.067283602 1.7493594e-22)
(2.6738209 -0.042763978 -2.8458345e-22)
(2.6604205 -0.0261404 3.7893275e-21)
(2.6471131 -0.015715321 5.5497941e-21)
(2.6353286 -0.0093902472 2.7249085e-21)
(2.6253426 -0.0054495088 -2.7625943e-21)
(2.6169202 -0.0027720898 -2.9775094e-23)
(2.6096407 -0.00078538587 3.2059873e-21)
(2.6032752 0.00073922647 -2.2126425e-21)
(2.5975457 0.0018548324 -6.1646679e-22)
(2.5926567 0.0024415725 -1.3199164e-22)
(2.5883563 0.0026143026 -4.7132305e-22)
(2.5853683 0.001941345 -3.0320127e-22)
(2.5830557 0.001047925 7.0173363e-22)
(2.2348771 -0.060970456 5.1865495e-21)
(2.2576457 -0.26771269 7.5242345e-21)
(2.4393722 -0.35031467 -7.8970371e-21)
(2.6016649 -0.3222961 -5.92736e-20)
(2.7007337 -0.17637928 -1.7561057e-19)
(2.6975222 -0.0067378345 7.6756454e-21)
(2.6015446 0.078917841 2.909222e-20)
(2.4943835 0.076214115 -8.4660979e-21)
(2.4255583 0.015339674 -1.8223999e-20)
(2.40358 -0.067119088 1.8494235e-21)
(2.4234986 -0.14187479 1.744904e-20)
(2.4716915 -0.19581874 1.6891365e-20)
(2.5346306 -0.22306229 1.2589157e-20)
(2.5990061 -0.22256176 7.9558753e-23)
(2.6530412 -0.19853656 8.3171754e-22)
(2.6889743 -0.15961535 -2.3129329e-21)
(2.7047453 -0.11617028 4.505993e-21)
(2.7036793 -0.076997625 -2.3418896e-21)
(2.6920449 -0.046931921 -9.5589861e-22)
(2.6760212 -0.026700364 -1.3092338e-21)
(2.6598736 -0.014460692 7.8790268e-22)
(2.6456744 -0.0075771001 7.5065594e-22)
(2.63392 -0.0037474286 0)
(2.6242744 -0.0014290638 -2.648431e-21)
(2.6161939 0.00022802106 -2.8943877e-21)
(2.6091478 0.0015472105 4.0637489e-21)
(2.6028984 0.0026006372 2.9291346e-21)
(2.5971987 0.0033236506 -3.2631093e-21)
(2.5922827 0.0035734997 -5.4123463e-22)
(2.5879403 0.0034014963 -8.1441921e-22)
(2.5848842 0.0024134716 2.0585412e-21)
(2.5825091 0.0011878583 2.2024765e-22)
(2.1928402 -0.053266965 -1.2342173e-21)
(2.2188189 -0.28425341 8.7648027e-21)
(2.4187162 -0.37537679 -3.963019e-21)
(2.5947593 -0.34446883 -7.4242008e-20)
(2.7006105 -0.1894392 6.2608845e-20)
(2.7156437 0.0027692199 1.9452049e-20)
(2.6109351 0.10400899 4.0808652e-20)
(2.4858316 0.10380828 -5.0164155e-21)
(2.4043851 0.036329331 2.6499847e-21)
(2.3768367 -0.057994442 -6.8498589e-22)
(2.3954388 -0.1451812 -6.3577778e-20)
(2.4467819 -0.210509 -1.8845164e-20)
(2.5168526 -0.24696178 -1.5983713e-20)
(2.5913956 -0.2520711 9.3989845e-22)
(2.6567397 -0.2289236 9.2271194e-22)
(2.7026358 -0.18613392 2.064582e-21)
(2.7249003 -0.13554117 -1.7075354e-21)
(2.7260816 -0.088290201 -2.3288833e-21)
(2.7132198 -0.051358103 2.1335956e-21)
(2.6940714 -0.02653013 9.7709843e-22)
(2.6743674 -0.011952957 4.4966738e-21)
(2.6570922 -0.0043866706 2.1109932e-22)
(2.6430721 -0.00081184095 -7.6038528e-21)
(2.6319484 0.00090302684 -9.206222e-23)
(2.622935 0.0019426414 -1.4083551e-22)
(2.6153172 0.0028297128 -1.8738975e-22)
(2.6085461 0.0036425366 -9.6853482e-22)
(2.6024232 0.004320598 -2.0332501e-21)
(2.596758 0.0047063834 -3.9430849e-22)
(2.5918192 0.0046498126 -5.4590709e-22)
(2.5874401 0.0041535214 -2.9263838e-22)
(2.5843243 0.0028683432 -7.0244095e-23)
(2.5818966 0.0013213386 1.0381917e-22)
(2.1527174 -0.045194259 8.3551241e-21)
(2.1773565 -0.30241757 -1.3455807e-20)
(2.3917292 -0.40254279 4.5574418e-21)
(2.5804534 -0.36929889 1.2052462e-19)
(2.6956173 -0.19906367 1.3984826e-19)
(2.7162761 0.010706305 -9.7068757e-20)
(2.624726 0.13102464 1.8891295e-20)
(2.4794168 0.13343376 -5.5281303e-22)
(2.3823479 0.058600715 2.0273222e-20)
(2.3479962 -0.047583609 -1.0264764e-20)
(2.3650845 -0.14775429 -5.5243831e-20)
(2.4191303 -0.22515806 -1.7935882e-20)
(2.4961556 -0.27193272 -2.4748976e-22)
(2.5812964 -0.28398116 2.0874039e-21)
(2.659145 -0.26280917 3.0426992e-21)
(2.7167585 -0.21654901 -2.0176877e-21)
(2.7472463 -0.15820112 1.0023282e-21)
(2.7517464 -0.10150719 -6.3733558e-22)
(2.7378282 -0.056148863 2.4131801e-22)
(2.7150198 -0.025497377 2.500108e-21)
(2.6909143 -0.0078969738 5.831708e-21)
(2.669725 0.00054323916 2.5331576e-21)
(2.6528067 0.0037234594 3.2523053e-21)
(2.6398088 0.0045167715 4.1002751e-21)
(2.629719 0.0046109519 -8.6485569e-22)
(2.6214945 0.0047377609 6.6730344e-21)
(2.6143807 0.0050921738 1.2746655e-21)
(2.6078838 0.0055403815 -1.7625554e-21)
(2.6018775 0.0059222361 -1.076324e-21)
(2.5962408 0.0060152851 8.6291708e-22)
(2.5912791 0.0056766901 1.0477707e-21)
(2.5868669 0.004873261 2.8420624e-22)
(2.5836991 0.0033066195 -1.2967176e-22)
(2.5812289 0.0014481354 1.4278871e-23)
(2.1164504 -0.036699619 -1.6727586e-21)
(2.1351126 -0.32170747 3.0797805e-20)
(2.3591693 -0.43093107 5.5328258e-23)
(2.556961 -0.3977509 8.0780461e-20)
(2.6835434 -0.21203915 1.8504533e-19)
(2.7028657 0.021542086 1.6275724e-19)
(2.617195 0.15891726 2.0652398e-21)
(2.4700321 0.16581847 -8.927398e-21)
(2.3606153 0.083022912 -9.8547584e-21)
(2.3172916 -0.036437337 -7.5831696e-21)
(2.3326932 -0.14949739 6.0155469e-20)
(2.388924 -0.23967695 1.0516739e-20)
(2.4725706 -0.29773548 -3.5057849e-21)
(2.5685109 -0.31809523 1.986529e-20)
(2.6599415 -0.30024628 -1.181726e-21)
(2.7311038 -0.25114535 5.7767697e-21)
(2.7718051 -0.1846039 -1.0040954e-21)
(2.780995 -0.11703417 4.1455689e-21)
(2.7663741 -0.061469191 5.761207e-21)
(2.7393828 -0.023477459 1.1183944e-21)
(2.7098865 -0.001956789 -2.393345e-21)
(2.6837601 0.0076336794 -1.420598e-21)
(2.6631297 0.010269044 4.2196922e-22)
(2.6477435 0.009783182 7.8376402e-21)
(2.6363253 0.0084942658 4.2133026e-21)
(2.6274752 0.0074937056 7.8152108e-22)
(2.6200786 0.0070532209 8.4372911e-21)
(2.6134475 0.0070811859 4.8405071e-21)
(2.6071932 0.0072803112 3.8570425e-21)
(2.6012802 0.0074272553 3.8110796e-21)
(2.5956601 0.0072611911 -1.7423952e-21)
(2.5906731 0.0066593167 4.5437098e-22)
(2.5862307 0.005562831 5.2429135e-23)
(2.5830175 0.0037277166 6.2458955e-23)
(2.5805136 0.0015683989 2.6527791e-22)
(2.085227 -0.027770356 8.5145515e-21)
(2.0941923 -0.34124591 2.6874195e-20)
(2.3215515 -0.46027597 -8.1922983e-21)
(2.5260844 -0.42650676 -1.0061889e-19)
(2.6638691 -0.22886789 1.4953952e-19)
(2.6794857 0.029417271 1.800108e-20)
(2.591159 0.18620121 6.6388962e-22)
(2.4547634 0.19881597 5.4454331e-21)
(2.3392863 0.10893317 -1.729308e-20)
(2.2857159 -0.023825274 9.6380759e-21)
(2.2984213 -0.15074048 2.658124e-20)
(2.3564179 -0.25383087 -5.8341815e-21)
(2.4461694 -0.32415443 -2.5563996e-20)
(2.5529116 -0.35418539 1.3456357e-20)
(2.6588028 -0.3411341 -2.327039e-21)
(2.7453529 -0.29017537 -1.2635761e-21)
(2.7985194 -0.21519891 2.3392776e-20)
(2.8141273 -0.13530436 -1.1454769e-20)
(2.7993648 -0.067494826 -8.0739426e-21)
(2.7676962 -0.02039124 -2.2582091e-21)
(2.731706 0.0062044406 -3.0825723e-21)
(2.6994195 0.017355822 -6.0436427e-22)
(2.6740623 0.019309442 -6.8205057e-21)
(2.6556187 0.017108897 1.5597456e-21)
(2.6425374 0.013929444 -6.9200584e-22)
(2.6329696 0.011305466 -8.1833432e-21)
(2.6253918 0.0097055859 -1.6839576e-21)
(2.6187704 0.0089951224 -3.8541229e-21)
(2.6125565 0.008861695 7.8790931e-22)
(2.6064942 0.0088987055 -3.0463012e-21)
(2.6006436 0.0088545163 -4.5859585e-22)
(2.5950255 0.0084530104 -3.3049396e-22)
(2.59001 0.0076016336 -2.0469671e-22)
(2.5855401 0.0062237237 -8.5215419e-23)
(2.5822875 0.0041317686 1.3254207e-22)
(2.579758 0.0016822626 -1.5203431e-23)
(2.0597691 -0.018470058 -2.3732422e-20)
(2.0565502 -0.36023076 -3.01396e-20)
(2.2797131 -0.4898518 7.4617e-21)
(2.4885758 -0.4553342 7.2978072e-20)
(2.6351752 -0.24380818 -1.9359388e-19)
(2.6486241 0.033600975 -1.1796631e-19)
(2.558684 0.21150476 3.5384406e-21)
(2.4323604 0.22933984 2.2792599e-20)
(2.3178032 0.13608845 4.058984e-21)
(2.2547588 -0.010892851 2.2170924e-20)
(2.2625852 -0.15096608 -2.1605509e-20)
(2.3218835 -0.26768813 -5.0655343e-20)
(2.4170849 -0.35082366 0)
(2.5343637 -0.39193108 -1.1016317e-21)
(2.6554057 -0.38539051 1.5519273e-21)
(2.7591416 -0.33374836 -1.9032238e-20)
(2.827226 -0.2504145 1.5050375e-20)
(2.8513425 -0.15678821 -1.7531093e-20)
(2.8373346 -0.074488641 1.4407307e-21)
(2.8005398 -0.016105545 -9.4517451e-23)
(2.7568251 0.016918008 7.8719497e-23)
(2.7169379 0.030208764 1.4624584e-21)
(2.6856316 0.031374815 7.4947389e-23)
(2.663288 0.026971331 4.1785141e-21)
(2.6480956 0.021273095 -2.4867268e-21)
(2.6376786 0.016447376 -9.8573839e-21)
(2.6299829 0.013189884 2.51334e-21)
(2.6235774 0.011412995 -4.8917521e-22)
(2.6176154 0.010666699 -2.0558536e-21)
(2.6117271 0.010492612 -4.1174922e-21)
(2.6057967 0.010426755 -3.0888975e-21)
(2.5999751 0.010219378 -8.0414249e-22)
(2.5943443 0.009597594 7.7175023e-22)
(2.5892972 0.0085064448 -1.8703303e-22)
(2.5848028 0.0068569184 -8.1584637e-27)
(2.5815166 0.0045188207 4.8585117e-23)
(2.5789689 0.0017898361 -4.9508469e-22)
(2.0406514 -0.0089132998 -1.431987e-21)
(2.0238448 -0.37788204 3.3818294e-20)
(2.2347498 -0.51872343 -1.103521e-20)
(2.4440472 -0.48389628 2.1303929e-20)
(2.5949916 -0.2571252 -9.2332166e-20)
(2.6080371 0.042014334 -4.7580823e-20)
(2.5221363 0.23500053 -4.2110495e-21)
(2.4020681 0.26048147 -2.3865603e-20)
(2.2939207 0.16007624 2.794171e-21)
(2.2249914 0.0049468056 3.0897043e-22)
(2.2258989 -0.15134809 -2.0963039e-21)
(2.2855149 -0.28069807 1.5496116e-20)
(2.385501 -0.3776532 -1.5190751e-20)
(2.5128334 -0.4309328 1.2659679e-21)
(2.6493831 -0.43264944 4.5714159e-21)
(2.7719982 -0.38201376 6.9304569e-21)
(2.8576811 -0.29061601 -5.1384895e-20)
(2.8927792 -0.18194939 5.4070806e-21)
(2.8806927 -0.082722281 1.8763697e-20)
(2.8385137 -0.010622915 -2.8506919e-21)
(2.7857597 0.030608771 7.9161345e-21)
(2.736597 0.046739654 -6.4105189e-22)
(2.6978586 0.04705033 2.2233896e-21)
(2.6705817 0.039888424 9.1067505e-23)
(2.6527095 0.030938829 -2.3572591e-21)
(2.6412487 0.023192099 -8.9281955e-21)
(2.6334987 0.01770102 2.7917001e-22)
(2.6275063 0.014402537 8.958236e-21)
(2.6220841 0.0127757 3.0099044e-21)
(2.6166298 0.012160272 -4.3843842e-22)
(2.6109638 0.012023735 -2.8410653e-21)
(2.6051033 0.011889504 8.4532328e-23)
(2.5992786 0.011533524 -1.6605042e-21)
(2.593622 0.010699828 -2.5657853e-22)
(2.5885411 0.0093755852 -2.2729544e-23)
(2.5840255 0.0074629948 -4.41221e-22)
(2.5807115 0.0048888024 2.1852691e-21)
(2.5781524 0.0018912397 -6.0021387e-23)
(2.0281436 0.00076469371 3.135828e-20)
(1.9971683 -0.39341944 -3.7500721e-20)
(2.187966 -0.54591309 -2.7514275e-20)
(2.3925267 -0.5112365 -6.3251379e-20)
(2.5434993 -0.26863071 -1.2619047e-19)
(2.5573335 0.052093463 4.4222788e-20)
(2.4757365 0.26035706 8.6288889e-20)
(2.3686819 0.29285983 -5.2715119e-20)
(2.2634279 0.1895095 0)
(2.1970395 0.016860203 -1.0187681e-20)
(2.1891746 -0.14833481 -3.8123347e-20)