/*--------------------------------*- C++ -*----------------------------------*\
| =========                 |                                                 |
| \\      /  F ield         | OpenFOAM: The Open Source CFD Toolbox           |
|  \\    /   O peration     | Version:  v2012                                 |
|   \\  /    A nd           | Website:  www.openfoam.com                      |
|    \\/     M anipulation  |                                                 |
\*---------------------------------------------------------------------------*/
FoamFile
{
    version     2.0;
    format      ascii;
    class       volVectorField;
    location    "108.032925162963693";
    object      cellDisplacement;
}
// * * * * * * * * * * * * * * * * * * * * * * * * * * * * * * * * * * * * * //

dimensions      [0 1 0 0 0 0 0];


internalField   nonuniform List<vector> 
9200
(
(-0.057785952 0 0)
(-0.058009114 0 0)
(-0.16746538 0 0)
(-0.058367832 0 0)
(-0.16803383 0 0)
(-0.26923599 0 0)
(-0.058799034 0 0)
(-0.1689711 0 0)
(-0.27009205 0 0)
(-0.36350666 0 0)
(-0.059267856 0 0)
(-0.1701227 0 0)
(-0.27151694 0 0)
(-0.3646081 0 0)
(-0.45070411 0 0)
(-0.059751124 0 0)
(-0.17139142 0 0)
(-0.27328949 0 0)
(-0.36647451 0 0)
(-0.45204848 0 0)
(-0.5313092 0 0)
(-0.060229256 0 0)
(-0.17270249 0 0)
(-0.27524276 0 0)
(-0.36878307 0 0)
(-0.45428837 0 0)
(-0.53284842 0 0)
(-0.6057321 0 0)
(-0.060692137 0 0)
(-0.17400964 0 0)
(-0.27727215 0 0)
(-0.37135281 0 0)
(-0.45711654 0 0)
(-0.53547915 0 0)
(-0.60749088 0 0)
(-0.67442846 0 0)
(-0.061129396 0 0)
(-0.17527347 0 0)
(-0.27929741 0 0)
(-0.37402737 0 0)
(-0.46025425 0 0)
(-0.53877113 0 0)
(-0.61045793 0 0)
(-0.67637305 0 0)
(-0.73776909 0 0)
(-0.061537959 0 0)
(-0.17647457 0 0)
(-0.28126194 0 0)
(-0.37670017 0 0)
(-0.46352924 0 0)
(-0.54245432 0 0)
(-0.61422431 0 0)
(-0.67970608 0 0)
(-0.73992547 0 0)
(-0.79615529 0 0)
(-0.061913319 0 0)
(-0.17759368 0 0)
(-0.28312848 0 0)
(-0.3792997 0 0)
(-0.46681041 0 0)
(-0.54630821 0 0)
(-0.61844321 0 0)
(-0.68392187 0 0)
(-0.74359098 0 0)
(-0.7985009 0 0)
(-0.84991421 0 0)
(-0.062256223 0 0)
(-0.17862731 0 0)
(-0.28487227 0 0)
(-0.38176898 0 0)
(-0.47000132 0 0)
(-0.55017244 0 0)
(-0.62286092 0 0)
(-0.68866389 0 0)
(-0.74827133 0 0)
(-0.80253054 0 0)
(-0.85247132 0 0)
(-0.89939377 0 0)
(-0.062565479 0 0)
(-0.17956779 0 0)
(-0.28648011 0 0)
(-0.38408088 0 0)
(-0.47304125 0 0)
(-0.55393605 0 0)
(-0.62729745 0 0)
(-0.69364443 0 0)
(-0.75353933 0 0)
(-0.80765709 0 0)
(-0.85684041 0 0)
(-0.90214719 0 0)
(-0.94487926 0 0)
(-0.062843709 0 0)
(-0.1804204 0 0)
(-0.28794722 0 0)
(-0.38621099 0 0)
(-0.47588446 0 0)
(-0.55752336 0 0)
(-0.63162523 0 0)
(-0.69865472 0 0)
(-0.7590871 0 0)
(-0.81345725 0 0)
(-0.86243871 0 0)
(-0.90688501 0 0)
(-0.94784635 0 0)
(-0.98667067 0 0)
(-0.063091538 0 0)
(-0.18118376 0 0)
(-0.28927305 0 0)
(-0.38815707 0 0)
(-0.47851208 0 0)
(-0.56088391 0 0)
(-0.63575237 0 0)
(-0.7035464 0 0)
(-0.76467367 0 0)
(-0.81957215 0 0)
(-0.86877076 0 0)
(-0.91294015 0 0)
(-0.95293529 0 0)
(-0.98984115 0 0)
(-1.0250165 0 0)
(-0.063312123 0 0)
(-0.18186674 0 0)
(-0.29046348 0 0)
(-0.38991407 0 0)
(-0.4809088 0 0)
(-0.5639894 0 0)
(-0.63962437 0 0)
(-0.70821678 0 0)
(-0.77013412 0 0)
(-0.8257453 0 0)
(-0.87546594 0 0)
(-0.91981556 0 0)
(-0.95947299 0 0)
(-0.99530539 0 0)
(-1.0284029 0 0)
(-1.0601755 0 0)
(-0.06350691 0 0)
(-0.18247143 0 0)
(-0.29152431 0 0)
(-0.39149262 0 0)
(-0.48307934 0 0)
(-0.56682729 0 0)
(-0.64320362 0 0)
(-0.71260277 0 0)
(-0.77535775 0 0)
(-0.83178981 0 0)
(-0.88223984 0 0)
(-0.92710124 0 0)
(-0.9668978 0 0)
(-1.0023151 0 0)
(-1.0342301 0 0)
(-1.0637709 0 0)
(-1.0923636 0 0)
(-0.063679052 0 0)
(-0.18300749 0 0)
(-0.29246624 0 0)
(-0.39289739 0 0)
(-0.48502511 0 0)
(-0.56939561 0 0)
(-0.64647863 0 0)
(-0.71666203 0 0)
(-0.78026469 0 0)
(-0.83757635 0 0)
(-0.88887818 0 0)
(-0.9344784 0 0)
(-0.97477734 0 0)
(-1.0102996 0 0)
(-1.0417347 0 0)
(-1.0699795 0 0)
(-1.0961766 0 0)
(-1.1218038 0 0)
(-0.063830237 0 0)
(-0.18347848 0 0)
(-0.29329709 0 0)
(-0.39414458 0 0)
(-0.4867624 0 0)
(-0.57170294 0 0)
(-0.64944295 0 0)
(-0.72037873 0 0)
(-0.78481575 0 0)
(-0.84302042 0 0)
(-0.89524305 0 0)
(-0.94173334 0 0)
(-0.98278547 0 0)
(-1.0187914 0 0)
(-1.0502867 0 0)
(-1.07797 0 0)
(-1.1027569 0 0)
(-1.1258292 0 0)
(-1.1486841 0 0)
(-0.063963297 0 0)
(-0.18389312 0 0)
(-0.29402866 0 0)
(-0.39524275 0 0)
(-0.48830039 0 0)
(-0.57376009 0 0)
(-0.65210838 0 0)
(-0.72374739 0 0)
(-0.78898304 0 0)
(-0.84807377 0 0)
(-0.9012431 0 0)
(-0.94869791 0 0)
(-0.99066297 0 0)
(-1.027428 0 0)
(-1.0593963 0 0)
(-1.0871001 0 0)
(-1.1112527 0 0)
(-1.1327945 0 0)
(-1.152927 0 0)
(-1.1731973 0 0)
(-0.064079757 0 0)
(-0.18425564 0 0)
(-0.2946693 0 0)
(-0.39620972 0 0)
(-0.48965927 0 0)
(-0.5755857 0 0)
(-0.65448494 0 0)
(-0.72677736 0 0)
(-0.79276798 0 0)
(-0.85270858 0 0)
(-0.90681468 0 0)
(-0.95526886 0 0)
(-0.99824553 0 0)
(-1.0359543 0 0)
(-1.0686874 0 0)
(-1.096843 0 0)
(-1.1209665 0 0)
(-1.1417867 0 0)
(-1.1602689 0 0)
(-1.1776528 0 0)
(-1.195507 0 0)
(-0.064182095 0 0)
(-0.1845734 0 0)
(-0.29522975 0 0)
(-0.39705431 0 0)
(-0.49085129 0 0)
(-0.57719582 0 0)
(-0.65659555 0 0)
(-0.72948303 0 0)
(-0.7961718 0 0)
(-0.85692002 0 0)
(-0.91193637 0 0)
(-0.96138484 0 0)
(-1.0054116 0 0)
(-1.044174 0 0)
(-1.0778706 0 0)
(-1.1067913 0 0)
(-1.1313488 0 0)
(-1.1520917 0 0)
(-1.1697713 0 0)
(-1.1853792 0 0)
(-1.2001775 0 0)
(-1.21578 0 0)
(-0.064271549 0 0)
(-0.18485048 0 0)
(-0.29571794 0 0)
(-0.39779386 0 0)
(-0.49189657 0 0)
(-0.57861216 0 0)
(-0.6584568 0 0)
(-0.73188532 0 0)
(-0.79921739 0 0)
(-0.8607143 0 0)
(-0.91659111 0 0)
(-0.96700829 0 0)
(-1.0120905 0 0)
(-1.0519562 0 0)
(-1.0867428 0 0)
(-1.1166499 0 0)
(-1.141974 0 0)
(-1.1631242 0 0)
(-1.1806701 0 0)
(-1.1953822 0 0)
(-1.20828 0 0)
(-1.2206605 0 0)
(-1.2341592 0 0)
(-0.064350146 0 0)
(-0.1850928 0 0)
(-0.29614355 0 0)
(-0.398436 0 0)
(-0.4928074 0 0)
(-0.57985139 0 0)
(-0.66009483 0 0)
(-0.73400777 0 0)
(-0.80192058 0 0)
(-0.86410878 0 0)
(-0.92079355 0 0)
(-0.97213256 0 0)
(-1.0182406 0 0)
(-1.0592174 0 0)
(-1.0951605 0 0)
(-1.1261942 0 0)
(-1.1525169 0 0)
(-1.1744299 0 0)
(-1.1923573 0 0)
(-1.2068787 0 0)
(-1.2187921 0 0)
(-1.2291422 0 0)
(-1.2392494 0 0)
(-1.2507892 0 0)
(-0.064418767 0 0)
(-0.185304 0 0)
(-0.29651319 0 0)
(-0.39899607 0 0)
(-0.49360164 0 0)
(-0.58093436 0 0)
(-0.66152783 0 0)
(-0.7358744 0 0)
(-0.8043132 0 0)
(-0.86712766 0 0)
(-0.9245537 0 0)
(-0.9767585 0 0)
(-1.0238519 0 0)
(-1.0659183 0 0)
(-1.1030285 0 0)
(-1.1352648 0 0)
(-1.1627456 0 0)
(-1.185673 0 0)
(-1.2043574 0 0)
(-1.2192262 0 0)
(-1.230885 0 0)
(-1.2401526 0 0)
(-1.2481015 0 0)
(-1.2560837 0 0)
(-1.2657949 0 0)
(-0.064479043 0 0)
(-0.18548866 0 0)
(-0.29683503 0 0)
(-0.39948056 0 0)
(-0.49429066 0 0)
(-0.58187679 0 0)
(-0.6627812 0 0)
(-0.73751103 0 0)
(-0.80641632 0 0)
(-0.86979755 0 0)
(-0.92790368 0 0)
(-0.98090917 0 0)
(-1.0289257 0 0)
(-1.0720362 0 0)
(-1.1102992 0 0)
(-1.1437605 0 0)
(-1.1724869 0 0)
(-1.1966002 0 0)
(-1.216307 0 0)
(-1.2319227 0 0)
(-1.2438939 0 0)
(-1.2528415 0 0)
(-1.2596131 0 0)
(-1.265305 0 0)
(-1.2712913 0 0)
(-1.2793017 0 0)
(-0.064531568 0 0)
(-0.18564984 0 0)
(-0.29711436 0 0)
(-0.39990275 0 0)
(-0.49488956 0 0)
(-0.58269662 0 0)
(-0.6638716 0 0)
(-0.73894056 0 0)
(-0.80826337 0 0)
(-0.87214979 0 0)
(-0.9308666 0 0)
(-0.98460549 0 0)
(-1.0334825 0 0)
(-1.0775808 0 0)
(-1.1169492 0 0)
(-1.1516209 0 0)
(-1.1816283 0 0)
(-1.2070284 0 0)
(-1.2279441 0 0)
(-1.2445913 0 0)
(-1.2572949 0 0)
(-1.2665121 0 0)
(-1.2728929 0 0)
(-1.2773053 0 0)
(-1.2808721 0 0)
(-1.2849939 0 0)
(-1.2914188 0 0)
(-0.06457767 0 0)
(-0.18579074 0 0)
(-0.29735811 0 0)
(-0.4002678 0 0)
(-0.4954082 0 0)
(-0.58340785 0 0)
(-0.66482172 0 0)
(-0.74018782 0 0)
(-0.80987578 0 0)
(-0.8742127 0 0)
(-0.93348077 0 0)
(-0.98788436 0 0)
(-1.0375477 0 0)
(-1.0825626 0 0)
(-1.122983 0 0)
(-1.1588257 0 0)
(-1.1901009 0 0)
(-1.2168317 0 0)
(-1.2390724 0 0)
(-1.2569499 0 0)
(-1.270686 0 0)
(-1.2806168 0 0)
(-1.2872224 0 0)
(-1.2911713 0 0)
(-1.2933594 0 0)
(-1.2949295 0 0)
(-1.2973031 0 0)
(-1.3022552 0 0)
(-0.064617659 0 0)
(-0.18591436 0 0)
(-0.29757024 0 0)
(-0.4005865 0 0)
(-0.49585896 0 0)
(-0.58402525 0 0)
(-0.66564576 0 0)
(-0.74127242 0 0)
(-0.81128445 0 0)
(-0.87601828 0 0)
(-0.93577319 0 0)
(-0.99077474 0 0)
(-1.0411557 0 0)
(-1.0870172 0 0)
(-1.1284152 0 0)
(-1.165369 0 0)
(-1.1978794 0 0)
(-1.2259378 0 0)
(-1.2495535 0 0)
(-1.2687878 0 0)
(-1.283773 0 0)
(-1.2947375 0 0)
(-1.3020326 0 0)
(-1.3061551 0 0)
(-1.3078027 0 0)
(-1.30789 0 0)
(-1.3075829 0 0)
(-1.3083248 0 0)
(-1.3119066 0 0)
(-0.064650514 0 0)
(-0.18602229 0 0)
(-0.29775628 0 0)
(-0.40086318 0 0)
(-0.49625 0 0)
(-0.58456072 0 0)
(-0.66636249 0 0)
(-0.74221609 0 0)
(-0.81250861 0 0)
(-0.87759246 0 0)
(-0.93778185 0 0)
(-0.99331731 0 0)
(-1.0443424 0 0)
(-1.0909716 0 0)
(-1.1332761 0 0)
(-1.1712729 0 0)
(-1.2049551 0 0)
(-1.2343061 0 0)
(-1.2593069 0 0)
(-1.2799626 0 0)
(-1.2963343 0 0)
(-1.3085614 0 0)
(-1.3168825 0 0)
(-1.3216663 0 0)
(-1.3234336 0 0)
(-1.3229018 0 0)
(-1.3210103 0 0)
(-1.3189413 0 0)
(-1.3181564 0 0)
(-1.3204672 0 0)
(-0.064409108 0 0)
(-0.18611193 0 0)
(-0.29791965 0 0)
(-0.40110624 0 0)
(-0.49659121 0 0)
(-0.58502589 0 0)
(-0.66698385 0 0)
(-0.74303503 0 0)
(-0.81357493 0 0)
(-0.8789645 0 0)
(-0.9395326 0 0)
(-0.99554191 0 0)
(-1.0471455 0 0)
(-1.0944717 0 0)
(-1.1376007 0 0)
(-1.1765601 0 0)
(-1.2113486 0 0)
(-1.2419385 0 0)
(-1.2682912 0 0)
(-1.290379 0 0)
(-1.3082102 0 0)
(-1.3218519 0 0)
(-1.3314468 0 0)
(-1.3372472 0 0)
(-1.3396417 0 0)
(-1.3391706 0 0)
(-1.3365785 0 0)
(-1.3328207 0 0)
(-1.3290983 0 0)
(-1.3268903 0 0)
(-1.3280211 0 0)
(-0.064115587 0 0)
(-0.18560115 0 0)
(-0.2980558 0 0)
(-0.4013199 0 0)
(-0.4968895 0 0)
(-0.58543087 0 0)
(-0.66752515 0 0)
(-0.74374765 0 0)
(-0.81449973 0 0)
(-0.88015655 0 0)
(-0.94105985 0 0)
(-0.9974873 0 0)
(-1.0496035 0 0)
(-1.0975504 0 0)
(-1.1414296 0 0)
(-1.1812741 0 0)
(-1.2170843 0 0)
(-1.2488386 0 0)
(-1.2764927 0 0)
(-1.2999939 0 0)
(-1.319307 0 0)
(-1.3344436 0 0)
(-1.3454754 0 0)
(-1.3525546 0 0)
(-1.3559488 0 0)
(-1.3560672 0 0)
(-1.3534739 0 0)
(-1.3489331 0 0)
(-1.34342 0 0)
(-1.3381481 0 0)
(-1.3346117 0 0)
(-1.3346497 0 0)
(-0.063848685 0 0)
(-0.18472065 0 0)
(-0.29730453 0 0)
(-0.40149885 0 0)
(-0.49715179 0 0)
(-0.58578424 0 0)
(-0.66799605 0 0)
(-0.74436675 0 0)
(-0.81530484 0 0)
(-0.88119342 0 0)
(-0.94238595 0 0)
(-0.99918061 0 0)
(-1.0517514 0 0)
(-1.1002549 0 0)
(-1.1448057 0 0)
(-1.1854503 0 0)
(-1.2222036 0 0)
(-1.2550456 0 0)
(-1.2839271 0 0)
(-1.3087867 0 0)
(-1.3295661 0 0)
(-1.3462289 0 0)
(-1.3587889 0 0)
(-1.3673245 0 0)
(-1.3719981 0 0)
(-1.3730962 0 0)
(-1.3710494 0 0)
(-1.3664419 0 0)
(-1.3600615 0 0)
(-1.3528962 0 0)
(-1.3461734 0 0)
(-1.3414009 0 0)
(-1.3404267 0 0)
(-0.063612069 0 0)
(-0.18392059 0 0)
(-0.2959022 0 0)
(-0.40053554 0 0)
(-0.49737143 0 0)
(-0.58609538 0 0)
(-0.66840835 0 0)
(-0.74490714 0 0)
(-0.81600383 0 0)
(-0.88209336 0 0)
(-0.94354035 0 0)
(-1.0006558 0 0)
(-1.0536254 0 0)
(-1.1026178 0 0)
(-1.1477707 0 0)
(-1.1891398 0 0)
(-1.2267475 0 0)
(-1.2605873 0 0)
(-1.2906175 0 0)
(-1.3167704 0 0)
(-1.3389694 0 0)
(-1.3571483 0 0)
(-1.3712747 0 0)
(-1.3813684 0 0)
(-1.3875126 0 0)
(-1.3898849 0 0)
(-1.3887912 0 0)
(-1.384684 0 0)
(-1.3781688 0 0)
(-1.3700517 0 0)
(-1.3613353 0 0)
(-1.3532558 0 0)
(-1.3473321 0 0)
(-1.3454222 0 0)
(-0.063407263 0 0)
(-0.18321208 0 0)
(-0.29462898 0 0)
(-0.39867224 0 0)
(-0.49622123 0 0)
(-0.58635428 0 0)
(-0.6687709 0 0)
(-0.74537944 0 0)
(-0.81661399 0 0)
(-0.88287671 0 0)
(-0.94454139 0 0)
(-1.0019361 0 0)
(-1.0552558 0 0)
(-1.104682 0 0)
(-1.150368 0 0)
(-1.1923819 0 0)
(-1.2307644 0 0)
(-1.2655186 0 0)
(-1.2966078 0 0)
(-1.3239673 0 0)
(-1.3475177 0 0)
(-1.3671749 0 0)
(-1.3828667 0 0)
(-1.3945628 0 0)
(-1.4022904 0 0)
(-1.4061429 0 0)
(-1.4063133 0 0)
(-1.4031291 0 0)
(-1.3970635 0 0)
(-1.3887413 0 0)
(-1.3789878 0 0)
(-1.3688149 0 0)
(-1.359468 0 0)
(-1.3524755 0 0)
(-1.3497008 0 0)
(-0.063236138 0 0)
(-0.1825994 0 0)
(-0.29350148 0 0)
(-0.39698052 0 0)
(-0.49395034 0 0)
(-0.58504275 0 0)
(-0.66907453 0 0)
(-0.74579438 0 0)
(-0.81714694 0 0)
(-0.88355818 0 0)
(-0.94541279 0 0)
(-1.0030498 0 0)
(-1.0566739 0 0)
(-1.1064773 0 0)
(-1.1526358 0 0)
(-1.1952267 0 0)
(-1.234301 0 0)
(-1.2698789 0 0)
(-1.3019386 0 0)
(-1.3304205 0 0)
(-1.3552415 0 0)
(-1.3763072 0 0)
(-1.3935291 0 0)
(-1.4068362 0 0)
(-1.4162008 0 0)
(-1.4216578 0 0)
(-1.4233122 0 0)
(-1.4213765 0 0)
(-1.4161987 0 0)
(-1.4082727 0 0)
(-1.3982416 0 0)
(-1.3869472 0 0)
(-1.37541 0 0)
(-1.3648808 0 0)
(-1.3568952 0 0)
(-1.3533229 0 0)
(-0.063099866 0 0)
(-0.18208793 0 0)
(-0.29252777 0 0)
(-0.39548261 0 0)
(-0.49188794 0 0)
(-0.58241194 0 0)
(-0.66762646 0 0)
(-0.74614268 0 0)
(-0.81761468 0 0)
(-0.88415361 0 0)
(-0.94616986 0 0)
(-1.0040161 0 0)
(-1.0579049 0 0)
(-1.1080398 0 0)
(-1.1546133 0 0)
(-1.1977116 0 0)
(-1.2374046 0 0)
(-1.2737266 0 0)
(-1.3066659 0 0)
(-1.3361732 0 0)
(-1.3621735 0 0)
(-1.3845717 0 0)
(-1.4032619 0 0)
(-1.4181487 0 0)
(-1.4291646 0 0)
(-1.4362885 0 0)
(-1.4395639 0 0)
(-1.4391106 0 0)
(-1.4351607 0 0)
(-1.4280834 0 0)
(-1.418392 0 0)
(-1.4067465 0 0)
(-1.3940034 0 0)
(-1.3811886 0 0)
(-1.3695579 0 0)
(-1.3606522 0 0)
(-1.3563448 0 0)
(-0.062999703 0 0)
(-0.18168088 0 0)
(-0.29171522 0 0)
(-0.39418925 0 0)
(-0.49006203 0 0)
(-0.5800236 0 0)
(-0.6646836 0 0)
(-0.74457595 0 0)
(-0.8180078 0 0)
(-0.88467581 0 0)
(-0.94683116 0 0)
(-1.0048575 0 0)
(-1.0589747 0 0)
(-1.1093958 0 0)
(-1.1563334 0 0)
(-1.1998818 0 0)
(-1.2401211 0 0)
(-1.2771037 0 0)
(-1.3108361 0 0)
(-1.3412798 0 0)
(-1.3683672 0 0)
(-1.3920032 0 0)
(-1.4120822 0 0)
(-1.4284938 0 0)
(-1.4411379 0 0)
(-1.4499501 0 0)
(-1.454918 0 0)
(-1.4560964 0 0)
(-1.4536219 0 0)
(-1.4477473 0 0)
(-1.4388619 0 0)
(-1.4274973 0 0)
(-1.414328 0 0)
(-1.4002245 0 0)
(-1.3862159 0 0)
(-1.3735603 0 0)
(-1.3638022 0 0)
(-1.3588178 0 0)
(-0.062936332 0 0)
(-0.18138187 0 0)
(-0.29106957 0 0)
(-0.39311017 0 0)
(-0.48848549 0 0)
(-0.57790778 0 0)
(-0.66201164 0 0)
(-0.74135805 0 0)
(-0.81634027 0 0)
(-0.88511442 0 0)
(-0.9474103 0 0)
(-1.0055905 0 0)
(-1.0599042 0 0)
(-1.110574 0 0)
(-1.1578299 0 0)
(-1.2017703 0 0)
(-1.2424928 0 0)
(-1.2800651 0 0)
(-1.3145069 0 0)
(-1.3457927 0 0)
(-1.3738692 0 0)
(-1.3986518 0 0)
(-1.4200305 0 0)
(-1.4378866 0 0)
(-1.452106 0 0)
(-1.4625911 0 0)
(-1.4692817 0 0)
(-1.4721739 0 0)
(-1.4713368 0 0)
(-1.4669249 0 0)
(-1.4592125 0 0)
(-1.4486078 0 0)
(-1.4356588 0 0)
(-1.4210545 0 0)
(-1.4056751 0 0)
(-1.3905519 0 0)
(-1.3769439 0 0)
(-1.3663978 0 0)
(-1.3607916 0 0)
(-0.062910207 0 0)
(-0.18119279 0 0)
(-0.29059587 0 0)
(-0.39225282 0 0)
(-0.48716986 0 0)
(-0.57608154 0 0)
(-0.65964535 0 0)
(-0.73843548 0 0)
(-0.81288076 0 0)
(-0.88336173 0 0)
(-0.94789687 0 0)
(-1.0062314 0 0)
(-1.0607136 0 0)
(-1.1115975 0 0)
(-1.1591301 0 0)
(-1.2034152 0 0)
(-1.2445606 0 0)
(-1.2826507 0 0)
(-1.3177239 0 0)
(-1.3497676 0 0)
(-1.378742 0 0)
(-1.4045695 0 0)
(-1.42715 0 0)
(-1.4463653 0 0)
(-1.4620866 0 0)
(-1.474195 0 0)
(-1.482598 0 0)
(-1.4872429 0 0)
(-1.4881354 0 0)
(-1.4853608 0 0)
(-1.4790937 0 0)
(-1.4696281 0 0)
(-1.4573909 0 0)
(-1.4429446 0 0)
(-1.4269886 0 0)
(-1.4104152 0 0)
(-1.394253 0 0)
(-1.3797614 0 0)
(-1.3684872 0 0)
(-1.3623099 0 0)
(-0.18111522 0 0)
(-0.062913136 0 0)
(-0.29029751 0 0)
(-0.39162426 0 0)
(-0.48612496 0 0)
(-0.57455691 0 0)
(-0.65760272 0 0)
(-0.73584815 0 0)
(-0.8097386 0 0)
(-0.87968801 0 0)
(-0.94607168 0 0)
(-1.0067713 0 0)
(-1.0614207 0 0)
(-1.1124882 0 0)
(-1.1602613 0 0)
(-1.2048447 0 0)
(-1.2463604 0 0)
(-1.2849082 0 0)
(-1.3205403 0 0)
(-1.3532573 0 0)
(-1.3830358 0 0)
(-1.4098149 0 0)
(-1.4334997 0 0)
(-1.4539739 0 0)
(-1.4711091 0 0)
(-1.4847728 0 0)
(-1.4948457 0 0)
(-1.5012396 0 0)
(-1.50391 0 0)
(-1.5028758 0 0)
(-1.4982407 0 0)
(-1.4901979 0 0)
(-1.4790623 0 0)
(-1.4652763 0 0)
(-1.4494157 0 0)
(-1.4321915 0 0)
(-1.4145011 0 0)
(-1.3973719 0 0)
(-1.3820614 0 0)
(-1.3701155 0 0)
(-1.3634159 0 0)
(-0.29017671 0 0)
(-0.18112441 0 0)
(-0.062945049 0 0)
(-0.3912285 0 0)
(-0.48535829 0 0)
(-0.57334606 0 0)
(-0.65589805 0 0)
(-0.73361441 0 0)
(-0.80695732 0 0)
(-0.87635241 0 0)
(-0.94220772 0 0)
(-1.0048866 0 0)
(-1.0620151 0 0)
(-1.1132664 0 0)
(-1.1612466 0 0)
(-1.2060896 0 0)
(-1.2479272 0 0)
(-1.2868732 0 0)
(-1.3229975 0 0)
(-1.3563129 0 0)
(-1.3868126 0 0)
(-1.4144465 0 0)
(-1.4391336 0 0)
(-1.4607695 0 0)
(-1.4792232 0 0)
(-1.494354 0 0)
(-1.5060295 0 0)
(-1.5141367 0 0)
(-1.5185905 0 0)
(-1.5193547 0 0)
(-1.5164643 0 0)
(-1.5100426 0 0)
(-1.5003032 0 0)
(-1.4875785 0 0)
(-1.4723266 0 0)
(-1.4551338 0 0)
(-1.436718 0 0)
(-1.4179858 0 0)
(-1.3999574 0 0)
(-1.3838889 0 0)
(-1.371325 0 0)
(-1.3641465 0 0)
(-0.39106896 0 0)
(-0.29019418 0 0)
(-0.18122051 0 0)
(-0.063014304 0 0)
(-0.48487618 0 0)
(-0.57245732 0 0)
(-0.65454409 0 0)
(-0.73175062 0 0)
(-0.80455611 0 0)
(-0.87339914 0 0)
(-0.93870005 0 0)
(-1.0008591 0 0)
(-1.0600854 0 0)
(-1.1139219 0 0)
(-1.1621064 0 0)
(-1.2071738 0 0)
(-1.2492903 0 0)
(-1.2885852 0 0)
(-1.3251415 0 0)
(-1.3589831 0 0)
(-1.3901205 0 0)
(-1.4185222 0 0)
(-1.4441171 0 0)
(-1.4668097 0 0)
(-1.4864795 0 0)
(-1.5029858 0 0)
(-1.516183 0 0)
(-1.5259393 0 0)
(-1.5321442 0 0)
(-1.5347197 0 0)
(-1.5336426 0 0)
(-1.5289656 0 0)
(-1.5208318 0 0)
(-1.5094721 0 0)
(-1.4952381 0 0)
(-1.4785995 0 0)
(-1.4601523 0 0)
(-1.4406227 0 0)
(-1.4209184 0 0)
(-1.4020559 0 0)
(-1.3852869 0 0)
(-1.3721539 0 0)
(-1.3645398 0 0)
(-0.484681 0 0)
(-0.39109288 0 0)
(-0.29035024 0 0)
(-0.18142807 0 0)
(-0.063120321 0 0)
(-0.57189776 0 0)
(-0.65355091 0 0)
(-0.7302703 0 0)
(-0.80255296 0 0)
(-0.87085035 0 0)
(-0.93559418 0 0)
(-0.99720103 0 0)
(-1.0559137 0 0)
(-1.1119602 0 0)
(-1.1628334 0 0)
(-1.2081202 0 0)
(-1.2504781 0 0)
(-1.2900745 0 0)
(-1.3270076 0 0)
(-1.3613123 0 0)
(-1.3930158 0 0)
(-1.4220991 0 0)
(-1.4485058 0 0)
(-1.472158 0 0)
(-1.4929422 0 0)
(-1.51072 0 0)
(-1.5253441 0 0)
(-1.5366699 0 0)
(-1.5445678 0 0)
(-1.5489319 0 0)
(-1.5496909 0 0)
(-1.5468368 0 0)
(-1.5404411 0 0)
(-1.5306666 0 0)
(-1.5177636 0 0)
(-1.5020976 0 0)
(-1.4841511 0 0)
(-1.4645266 0 0)
(-1.4439534 0 0)
(-1.4233455 0 0)
(-1.4037092 0 0)
(-1.3862937 0 0)
(-1.3726395 0 0)
(-1.3646269 0 0)
(-0.57167108 0 0)
(-0.48471055 0 0)
(-0.39130115 0 0)
(-0.29068358 0 0)
(-0.1817458 0 0)
(-0.063262508 0 0)
(-0.65292573 0 0)
(-0.72918437 0 0)
(-0.80096222 0 0)
(-0.86872377 0 0)
(-0.93291447 0 0)
(-0.99396406 0 0)
(-1.0521265 0 0)
(-1.107666 0 0)
(-1.1608512 0 0)
(-1.2089218 0 0)
(-1.251515 0 0)
(-1.2913725 0 0)
(-1.3286337 0 0)
(-1.3633424 0 0)
(-1.3955413 0 0)
(-1.4252297 0 0)
(-1.4523631 0 0)
(-1.4768758 0 0)
(-1.4986705 0 0)
(-1.5176182 0 0)
(-1.5335704 0 0)
(-1.5463746 0 0)
(-1.5558879 0 0)
(-1.5619856 0 0)
(-1.5645642 0 0)
(-1.5635641 0 0)
(-1.5589951 0 0)
(-1.5509485 0 0)
(-1.5396063 0 0)
(-1.5252336 0 0)
(-1.5082126 0 0)
(-1.4890328 0 0)
(-1.4683035 0 0)
(-1.4467586 0 0)
(-1.4253098 0 0)
(-1.4049581 0 0)
(-1.3869472 0 0)
(-1.3728138 0 0)
(-1.364441 0 0)
(-0.65267301 0 0)
(-0.57170353 0 0)
(-0.48496368 0 0)
(-0.39174467 0 0)
(-0.29119275 0 0)
(-0.18217166 0 0)
(-0.063439581 0 0)
(-0.72850123 0 0)
(-0.79979574 0 0)
(-0.86703555 0 0)
(-0.93067856 0 0)
(-0.99116978 0 0)
(-1.048774 0 0)
(-1.1037686 0 0)
(-1.1564535 0 0)
(-1.2069305 0 0)
(-1.2523935 0 0)
(-1.2925052 0 0)
(-1.33005 0 0)
(-1.3651104 0 0)
(-1.397745 0 0)
(-1.4279659 0 0)
(-1.4557413 0 0)
(-1.4810249 0 0)
(-1.5037323 0 0)
(-1.5237436 0 0)
(-1.540918 0 0)
(-1.5551028 0 0)
(-1.5661443 0 0)
(-1.5739 0 0)
(-1.5782482 0 0)
(-1.5790958 0 0)
(-1.5763952 0 0)
(-1.5701744 0 0)
(-1.5605433 0 0)
(-1.5477031 0 0)
(-1.5319357 0 0)
(-1.5136332 0 0)
(-1.493295 0 0)
(-1.4715327 0 0)
(-1.4490802 0 0)
(-1.4268523 0 0)
(-1.4058383 0 0)
(-1.3872794 0 0)
(-1.3727096 0 0)
(-1.3640079 0 0)
(-0.72822493 0 0)
(-0.65270965 0 0)
(-0.57199591 0 0)
(-0.48550476 0 0)
(-0.39242194 0 0)
(-0.29187364 0 0)
(-0.18270229 0 0)
(-0.063650381 0 0)
(-0.7990625 0 0)
(-0.8657977 0 0)
(-0.92890426 0 0)
(-0.9888398 0 0)
(-1.0458816 0 0)
(-1.1003187 0 0)
(-1.1524609 0 0)
(-1.202445 0 0)
(-1.2504032 0 0)
(-1.2934662 0 0)
(-1.331285 0 0)
(-1.366651 0 0)
(-1.3996639 0 0)
(-1.4303526 0 0)
(-1.4586968 0 0)
(-1.4846639 0 0)
(-1.5081874 0 0)
(-1.5291621 0 0)
(-1.5474544 0 0)
(-1.5629146 0 0)
(-1.5753858 0 0)
(-1.5847142 0 0)
(-1.5907624 0 0)
(-1.5934151 0 0)
(-1.5925834 0 0)
(-1.5882379 0 0)
(-1.5804262 0 0)
(-1.569278 0 0)
(-1.5550113 0 0)
(-1.53792 0 0)
(-1.51841 0 0)
(-1.4969832 0 0)
(-1.4742553 0 0)
(-1.4509608 0 0)
(-1.4280098 0 0)
(-1.4063859 0 0)
(-1.3873241 0 0)
(-1.3723541 0 0)
(-1.3633569 0 0)
(-0.79876677 0 0)
(-0.72826548 0 0)
(-0.6530365 0 0)
(-0.57262036 0 0)
(-0.48632944 0 0)
(-0.39332731 0 0)
(-0.29272218 0 0)
(-0.18333433 0 0)
(-0.063893144 0 0)
(-0.86501997 0 0)
(-0.92760429 0 0)
(-0.98698988 0 0)
(-1.0434689 0 0)
(-1.0973431 0 0)
(-1.1489291 0 0)
(-1.1983732 0 0)
(-1.2458438 0 0)
(-1.2914849 0 0)
(-1.3323345 0 0)
(-1.3679941 0 0)
(-1.4013368 0 0)
(-1.4324337 0 0)
(-1.4612757 0 0)
(-1.4878482 0 0)
(-1.5121003 0 0)
(-1.533939 0 0)
(-1.5532438 0 0)
(-1.5698736 0 0)
(-1.5836725 0 0)
(-1.5944796 0 0)
(-1.6021438 0 0)
(-1.606532 0 0)
(-1.6075338 0 0)
(-1.6050756 0 0)
(-1.5991425 0 0)
(-1.5898025 0 0)
(-1.5772027 0 0)
(-1.5615779 0 0)
(-1.5432357 0 0)
(-1.5225876 0 0)
(-1.5001426 0 0)
(-1.4765152 0 0)
(-1.4524367 0 0)
(-1.4288183 0 0)
(-1.4066311 0 0)
(-1.387108 0 0)
(-1.3717757 0 0)
(-1.3625101 0 0)
(-0.86470709 0 0)
(-0.7988114 0 0)
(-0.72862219 0 0)
(-0.65373488 0 0)
(-0.57357498 0 0)
(-0.48743342 0 0)
(-0.39445502 0 0)
(-0.29373161 0 0)
(-0.18406277 0 0)
(-0.064166189 0 0)
(-0.92678837 0 0)
(-0.9856348 0 0)
(-1.0415547 0 0)
(-1.0948614 0 0)
(-1.1458817 0 0)
(-1.1947725 0 0)
(-1.2417075 0 0)
(-1.2868653 0 0)
(-1.3303687 0 0)
(-1.369136 0 0)
(-1.4027948 0 0)
(-1.4342471 0 0)
(-1.463526 0 0)
(-1.4906301 0 0)
(-1.5155262 0 0)
(-1.5381376 0 0)
(-1.5583555 0 0)
(-1.5760483 0 0)
(-1.5910673 0 0)
(-1.6032509 0 0)
(-1.612439 0 0)
(-1.6184838 0 0)
(-1.6212573 0 0)
(-1.6206582 0 0)
(-1.6166225 0 0)
(-1.6091577 0 0)
(-1.5983502 0 0)
(-1.5843656 0 0)
(-1.5674529 0 0)
(-1.5479275 0 0)
(-1.5262118 0 0)
(-1.5028133 0 0)
(-1.4783485 0 0)
(-1.4535455 0 0)
(-1.429309 0 0)
(-1.4066057 0 0)
(-1.386661 0 0)
(-1.370998 0 0)
(-1.3614932 0 0)
(-0.92646235 0 0)
(-0.86475474 0 0)
(-0.79919549 0 0)
(-0.72938641 0 0)
(-0.65480191 0 0)
(-0.57485096 0 0)
(-0.48880748 0 0)
(-0.39579667 0 0)
(-0.29489553 0 0)
(-0.18488288 0 0)
(-0.064466132 0 0)
(-0.98478432 0 0)
(-1.0401521 0 0)
(-1.0928929 0 0)
(-1.1433417 0 0)
(-1.1916661 0 0)
(-1.2380493 0 0)
(-1.282676 0 0)
(-1.3257008 0 0)
(-1.3671951 0 0)
(-1.4040362 0 0)
(-1.4358278 0 0)
(-1.4654866 0 0)
(-1.4930571 0 0)
(-1.5185221 0 0)
(-1.5418187 0 0)
(-1.5628529 0 0)
(-1.5815062 0 0)
(-1.597639 0 0)
(-1.6110933 0 0)
(-1.6217046 0 0)
(-1.6293153 0 0)
(-1.6337837 0 0)
(-1.6349858 0 0)
(-1.6328285 0 0)
(-1.6272685 0 0)
(-1.6183291 0 0)
(-1.6061172 0 0)
(-1.5908127 0 0)
(-1.5726785 0 0)
(-1.5520404 0 0)
(-1.5293222 0 0)
(-1.505036 0 0)
(-1.4797938 0 0)
(-1.4543184 0 0)
(-1.4295138 0 0)
(-1.4063347 0 0)
(-1.3860058 0 0)
(-1.370046 0 0)
(-1.3603224 0 0)
(-0.98444388 0 0)
(-0.92651454 0 0)
(-0.86516338 0 0)
(-0.8000181 0 0)
(-0.73055294 0 0)
(-0.6562288 0 0)
(-0.57644177 0 0)
(-0.49044308 0 0)
(-0.3973431 0 0)
(-0.29620546 0 0)
(-0.18578433 0 0)
(-0.064713489 0 0)
(-1.0392725 0 0)
(-1.0914513 0 0)
(-1.141326 0 0)
(-1.1890778 0 0)
(-1.2348954 0 0)
(-1.2789716 0 0)
(-1.3214675 0 0)
(-1.3624875 0 0)
(-1.4021267 0 0)
(-1.4371747 0 0)
(-1.4671958 0 0)
(-1.4951732 0 0)
(-1.5211363 0 0)
(-1.545039 0 0)
(-1.5668007 0 0)
(-1.5863153 0 0)
(-1.6034564 0 0)
(-1.6180735 0 0)
(-1.6300034 0 0)
(-1.6390826 0 0)
(-1.6451574 0 0)
(-1.6480889 0 0)
(-1.6477607 0 0)
(-1.644094 0 0)
(-1.6370586 0 0)
(-1.6267017 0 0)
(-1.6131465 0 0)
(-1.5965886 0 0)
(-1.5773012 0 0)
(-1.5556147 0 0)
(-1.5319605 0 0)
(-1.5068458 0 0)
(-1.480883 0 0)
(-1.4547885 0 0)
(-1.4294592 0 0)
(-1.4058476 0 0)
(-1.3851692 0 0)
(-1.3689373 0 0)
(-1.3589466 0 0)
(-1.0389209 0 0)
(-0.98449808 0 0)
(-0.92694595 0 0)
(-0.86603647 0 0)
(-0.80127317 0 0)
(-0.73211466 0 0)
(-0.65800707 0 0)
(-0.57833322 0 0)
(-0.49232807 0 0)
(-0.39908414 0 0)
(-0.29764507 0 0)
(-0.18631462 0 0)
(-0.064686518 0 0)
(-1.0905479 0 0)
(-1.1398508 0 0)
(-1.1870246 0 0)
(-1.232267 0 0)
(-1.2757791 0 0)
(-1.3177268 0 0)
(-1.3582209 0 0)
(-1.3973881 0 0)
(-1.435303 0 0)
(-1.4686535 0 0)
(-1.4970174 0 0)
(-1.5234169 0 0)
(-1.5478518 0 0)
(-1.5702567 0 0)
(-1.5905402 0 0)
(-1.6085889 0 0)
(-1.6242629 0 0)
(-1.6374038 0 0)
(-1.6478476 0 0)
(-1.6554324 0 0)
(-1.6600084 0 0)
(-1.661442 0 0)
(-1.659624 0 0)
(-1.6544905 0 0)
(-1.6460345 0 0)
(-1.6343179 0 0)
(-1.6194828 0 0)
(-1.6017351 0 0)
(-1.581359 0 0)
(-1.5586913 0 0)
(-1.5341612 0 0)
(-1.508279 0 0)
(-1.4816497 0 0)
(-1.4549822 0 0)
(-1.429174 0 0)
(-1.4051645 0 0)
(-1.3841677 0 0)
(-1.3675413 0 0)
(-1.3573229 0 0)
(-1.0901884 0 0)
(-1.0389768 0 0)
(-0.98494593 0 0)
(-0.92786507 0 0)
(-0.86737031 0 0)
(-0.80295345 0 0)
(-0.73405947 0 0)
(-0.6601225 0 0)
(-0.58051532 0 0)
(-0.49444951 0 0)
(-0.40099553 0 0)
(-0.29843172 0 0)
(-0.18624412 0 0)
(-0.064652644 0 0)
(-1.1389259 0 0)
(-1.1855229 0 0)
(-1.2301837 0 0)
(-1.2731192 0 0)
(-1.3145026 0 0)
(-1.3544512 0 0)
(-1.3930955 0 0)
(-1.4305422 0 0)
(-1.466828 0 0)
(-1.4985919 0 0)
(-1.5254041 0 0)
(-1.5503055 0 0)
(-1.5732777 0 0)
(-1.594243 0 0)
(-1.6131031 0 0)
(-1.6297305 0 0)
(-1.6439752 0 0)
(-1.655677 0 0)
(-1.6646705 0 0)
(-1.6707954 0 0)
(-1.6739082 0 0)
(-1.6738804 0 0)
(-1.670614 0 0)
(-1.6640641 0 0)
(-1.6542374 0 0)
(-1.6412197 0 0)
(-1.6251657 0 0)
(-1.6062939 0 0)
(-1.5848948 0 0)
(-1.5613062 0 0)
(-1.5359624 0 0)
(-1.5093661 0 0)
(-1.4821211 0 0)
(-1.4549294 0 0)
(-1.4286797 0 0)
(-1.4043102 0 0)
(-1.3827441 0 0)
(-1.3658504 0 0)
(-1.3554966 0 0)
(-1.1385583 0 0)
(-1.090247 0 0)
(-1.0394402 0 0)
(-0.98590397 0 0)
(-0.92926841 0 0)
(-0.86915382 0 0)
(-0.80504556 0 0)
(-0.73637472 0 0)
(-0.66256155 0 0)
(-0.58297 0 0)
(-0.49677995 0 0)
(-0.40200575 0 0)
(-0.29832832 0 0)
(-0.18615574 0 0)
(-0.064613237 0 0)
(-1.1845825 0 0)
(-1.2286596 0 0)
(-1.2710118 0 0)
(-1.3118185 0 0)
(-1.3512045 0 0)
(-1.3893044 0 0)
(-1.4262304 0 0)
(-1.4620542 0 0)
(-1.4968202 0 0)
(-1.5271027 0 0)
(-1.5524443 0 0)
(-1.5759136 0 0)
(-1.5974811 0 0)
(-1.6170634 0 0)
(-1.6345462 0 0)
(-1.6497898 0 0)
(-1.6626417 0 0)
(-1.672938 0 0)
(-1.680513 0 0)
(-1.6852126 0 0)
(-1.6868965 0 0)
(-1.6854436 0 0)
(-1.6807694 0 0)
(-1.6728471 0 0)
(-1.6617069 0 0)
(-1.6474467 0 0)
(-1.6302373 0 0)
(-1.6103032 0 0)
(-1.5879425 0 0)
(-1.5634967 0 0)
(-1.5373943 0 0)
(-1.5101396 0 0)
(-1.4823274 0 0)
(-1.4546512 0 0)
(-1.4280011 0 0)
(-1.4028514 0 0)
(-1.3809185 0 0)
(-1.3639659 0 0)
(-1.3534606 0 0)
(-1.1842103 0 0)
(-1.1386176 0 0)
(-1.0907244 0 0)
(-1.0404314 0 0)
(-0.98736538 0 0)
(-0.931144 0 0)
(-0.8713765 0 0)
(-0.80753646 0 0)
(-0.73904361 0 0)
(-0.66530676 0 0)
(-0.58566719 0 0)
(-0.49798544 0 0)
(-0.40186867 0 0)
(-0.29819797 0 0)
(-0.18605277 0 0)
(-0.064567515 0 0)
(-1.2277067 0 0)
(-1.269471 0 0)
(-1.3096914 0 0)
(-1.3485016 0 0)
(-1.3860409 0 0)
(-1.422425 0 0)
(-1.4577324 0 0)
(-1.4920421 0 0)
(-1.5253916 0 0)
(-1.5542735 0 0)
(-1.5782117 0 0)
(-1.6003087 0 0)
(-1.6205297 0 0)
(-1.638775 0 0)
(-1.654917 0 0)
(-1.668813 0 0)
(-1.6803056 0 0)
(-1.6892267 0 0)
(-1.6954133 0 0)
(-1.6987181 0 0)
(-1.6990068 0 0)
(-1.6961645 0 0)
(-1.6901255 0 0)
(-1.6808835 0 0)
(-1.6684812 0 0)
(-1.6530385 0 0)
(-1.6347341 0 0)
(-1.6138017 0 0)
(-1.5905419 0 0)
(-1.5652946 0 0)
(-1.5384912 0 0)
(-1.5106256 0 0)
(-1.482291 0 0)
(-1.4541747 0 0)
(-1.4265096 0 0)
(-1.4008445 0 0)
(-1.3789191 0 0)
(-1.3618805 0 0)
(-1.3512179 0 0)
(-1.22733 0 0)
(-1.1842718 0 0)
(-1.1391043 0 0)
(-1.0917447 0 0)
(-1.0419455 0 0)
(-0.98932146 0 0)
(-0.93348037 0 0)
(-0.87402019 0 0)
(-0.81040744 0 0)
(-0.74204754 0 0)
(-0.66832172 0 0)
(-0.58704299 0 0)
(-0.49781907 0 0)
(-0.40169835 0 0)
(-0.29804442 0 0)
(-0.18593255 0 0)
(-0.064514539 0 0)
(-1.2685088 0 0)
(-1.3081379 0 0)
(-1.3463619 0 0)
(-1.383325 0 0)
(-1.4191496 0 0)
(-1.4539199 0 0)
(-1.4877187 0 0)
(-1.520617 0 0)
(-1.5526308 0 0)
(-1.5801781 0 0)
(-1.6027734 0 0)
(-1.6235581 0 0)
(-1.6424802 0 0)
(-1.6594252 0 0)
(-1.6742628 0 0)
(-1.6868442 0 0)
(-1.6970053 0 0)
(-1.7045782 0 0)
(-1.7094055 0 0)
(-1.7113479 0 0)
(-1.7102735 0 0)
(-1.7060793 0 0)
(-1.6987184 0 0)
(-1.6882037 0 0)
(-1.6745989 0 0)
(-1.6580321 0 0)
(-1.6386954 0 0)
(-1.616824 0 0)
(-1.5927233 0 0)
(-1.5667339 0 0)
(-1.5392783 0 0)
(-1.5108526 0 0)
(-1.4820394 0 0)
(-1.4526546 0 0)
(-1.4242875 0 0)
(-1.3986858 0 0)
(-1.3767358 0 0)
(-1.3595953 0 0)
(-1.3487614 0 0)
(-1.2681304 0 0)
(-1.2273928 0 0)
(-1.1847674 0 0)
(-1.1401475 0 0)
(-1.093303 0 0)
(-1.0439704 0 0)
(-0.99175656 0 0)
(-0.93625914 0 0)
(-0.87706864 0 0)
(-0.81363886 0 0)
(-0.74534732 0 0)
(-0.66984049 0 0)
(-0.58684469 0 0)
(-0.49760897 0 0)
(-0.40149702 0 0)
(-0.29786435 0 0)
(-0.18579277 0 0)
(-0.064453584 0 0)
(-1.3071679 0 0)
(-1.3447992 0 0)
(-1.3811765 0 0)
(-1.4164261 0 0)
(-1.4506396 0 0)
(-1.4839058 0 0)
(-1.5162988 0 0)
(-1.547868 0 0)
(-1.5786117 0 0)
(-1.6048852 0 0)
(-1.6261997 0 0)
(-1.6457191 0 0)
(-1.6633786 0 0)
(-1.6790601 0 0)
(-1.692627 0 0)
(-1.7039214 0 0)
(-1.7127751 0 0)
(-1.7190255 0 0)
(-1.7225256 0 0)
(-1.723135 0 0)
(-1.7207277 0 0)
(-1.7152183 0 0)
(-1.7065821 0 0)
(-1.69485 0 0)
(-1.6800952 0 0)
(-1.6624652 0 0)
(-1.6421548 0 0)
(-1.619406 0 0)
(-1.5945232 0 0)
(-1.5678412 0 0)
(-1.5397862 0 0)
(-1.5108433 0 0)
(-1.4805011 0 0)
(-1.4502005 0 0)
(-1.4219455 0 0)
(-1.3963734 0 0)
(-1.3743716 0 0)
(-1.3571043 0 0)
(-1.3460947 0 0)
(-1.3067884 0 0)
(-1.2681951 0 0)
(-1.2278947 0 0)
(-1.1858303 0 0)
(-1.1417415 0 0)
(-1.0953873 0 0)
(-1.0464931 0 0)
(-0.99465506 0 0)
(-0.93946257 0 0)
(-0.88049916 0 0)
(-0.817188 0 0)
(-0.74699127 0 0)
(-0.66960352 0 0)
(-0.58659623 0 0)
(-0.49736382 0 0)
(-0.40126272 0 0)
(-0.29765204 0 0)
(-0.18562973 0 0)
(-0.064382871 0 0)
(-1.3438258 0 0)
(-1.3796087 0 0)
(-1.4142713 0 0)
(-1.4479136 0 0)
(-1.4806273 0 0)
(-1.5124922 0 0)
(-1.5435622 0 0)
(-1.5738695 0 0)
(-1.6034033 0 0)
(-1.6284653 0 0)
(-1.6485462 0 0)
(-1.6668379 0 0)