/*--------------------------------*- C++ -*----------------------------------*\
| =========                 |                                                 |
| \\      /  F ield         | OpenFOAM: The Open Source CFD Toolbox           |
|  \\    /   O peration     | Version:  v2012                                 |
|   \\  /    A nd           | Website:  www.openfoam.com                      |
|    \\/     M anipulation  |                                                 |
\*---------------------------------------------------------------------------*/
FoamFile
{
    version     2.0;
    format      ascii;
    class       surfaceScalarField;
    location    "108.032925162963693";
    object      meshPhi;
}
// * * * * * * * * * * * * * * * * * * * * * * * * * * * * * * * * * * * * * //

dimensions      [0 3 -1 0 0 0 0];
oriented        oriented;


internalField   nonuniform List<scalar> 
18180
(
0
0.019374291
0
0.017935862
-1.574008e-17
0.03714223
0
0.016736024
6.7959115e-14
0.034457659
-6.5299164e-14
0.053977586
0
0.015782899
0
0.031960969
0
0.049952446
0
0.069797651
-8.7973449e-18
0.015034964
3.4022606e-14
0.029955267
0
0.046271824
0
0.064718254
0
0.084359805
0
0.014417299
3.4043038e-14
0.028367955
-3.2683067e-14
0.043091304
6.2779779e-14
0.059826485
0
0.078297328
-5.7955789e-14
0.097570287
-9.2812112e-18
0.013847463
6.8119936e-14
0.027016007
-3.2708045e-14
0.040455316
0
0.055498324
0
0.07240276
0
0.090590019
-5.5703441e-14
0.1094234
0
0.013297875
-3.4084443e-14
0.025804484
6.9315391e-18
0.038251365
-3.142815e-14
0.051835159
0
0.067020641
0
0.083774679
0
0.10170627
0
0.1201608
0
0.012755994
0
0.024657209
0
0.036288834
0
0.048721755
-6.0338183e-18
0.062370706
2.9010459e-14
0.077466934
5.5729965e-14
0.094108665
0
0.11175022
5.1461417e-14
0.12971197
0
0.012218903
-3.4114605e-14
0.023550849
6.9435076e-18
0.034469596
0
0.045999318
3.0217294e-14
0.05844241
5.8045408e-14
0.071972769
-2.7878381e-14
0.087052643
-5.3579355e-14
0.10359101
0
0.12081333
0
0.13827097
0
0.011686399
0
0.022473223
0
0.03273938
3.1477934e-14
0.043523609
-5.9833202e-18
0.055050931
5.8076432e-14
0.067342371
-5.1423807e-18
0.080892015
0
0.096000486
5.1497663e-14
0.11221807
0
0.12892029
-4.7572845e-14
0.14589412
0
0.011159011
0
0.021423257
6.5581501e-14
0.031074207
0
0.041203725
-3.0242553e-14
0.05200654
-5.5033646e-18
0.063364109
5.0996928e-18
0.075623474
-4.8415261e-18
0.089266478
5.1528554e-14
0.1042259
0
0.11999876
0
0.13618597
0
0.15271647
5.3098472e-18
0.010638093
0
0.020400083
0
0.029463941
3.1507548e-14
0.03899694
-3.026318e-14
0.049188295
2.9071425e-14
0.0598152
0
0.071092383
2.6833022e-14
0.083462838
-2.5781324e-14
0.097065448
-2.4768318e-14
0.11167458
0
0.12694973
0
0.14263602
0
0.15872624
0
0.010122999
1.7091726e-14
0.019404036
0
0.027907948
0
0.03688095
3.027683e-14
0.046528017
0
0.056547328
0
0.067072451
-2.6848426e-14
0.078413528
0
0.090750093
-2.4787312e-14
0.10410663
0
0.11831587
0
0.13312289
0
0.14833911
0
0.16403302
1.7798914e-14
0.0096146876
-4.4261012e-18
0.018434927
0
0.02640594
0
0.03484788
0
0.043995688
-5.6363658e-18
0.053468119
-2.7952946e-14
0.063368373
5.3717263e-14
0.073906082
0
0.085177561
2.4803074e-14
0.097326804
-2.3833742e-14
0.11039833
-6.8703545e-14
0.12421455
0
0.13855758
0
0.15335194
4.0672189e-14
0.16871188
0
0.0091143007
-1.7107195e-14
0.017493764
1.641817e-14
0.024960028
-1.5768514e-14
0.032896366
0
0.041577654
0
0.050541544
-5.2040165e-18
0.059884276
0
0.069778208
5.1651092e-14
0.080206402
-4.0121952e-18
0.091276102
-2.3846148e-14
0.10321138
-3.2577684e-18
0.11599731
-2.2024882e-14
0.12940707
-4.8869843e-18
0.14334028
-4.0688e-14
0.15777728
0
0.17284964
-1.7814567e-14
0.0086235263
0
0.016580866
-3.4307608e-18
0.023572028
-1.5776552e-14
0.031026906
0
0.039269165
0
0.047751667
0
0.056571172
2.6886503e-14
0.065912251
0
0.075671193
0
0.0858504
-2.3866077e-14
0.096716686
2.2935039e-14
0.10846156
-2.8682481e-18
0.12093146
-2.1181673e-14
0.13396172
0
0.14752697
0
0.16165771
3.7624001e-14
0.17646846
1.7813109e-14
0.0081440747
-1.7111308e-14
0.015696071
0
0.022245131
1.5774432e-14
0.029241311
1.515709e-14
0.037066394
-1.4563555e-14
0.045090412
0
0.053410119
-2.6903975e-14
0.062246032
2.5851809e-14
0.071445617
0
0.080917124
0
0.090857427
-2.2948539e-14
0.10158455
0
0.11312509
-2.5306103e-18
0.12526586
-2.0372153e-14
0.13793266
3.9156773e-14
0.15119553
0
0.1650553
0
0.17962808
1.7822458e-14
0.0076778308
-1.7110182e-14
0.014839853
1.6430425e-14
0.020980379
0
0.027540241
0
0.03496629
1.4568119e-14
0.042552028
-1.4000104e-14
0.050390345
0
0.058754084
0
0.067459439
0
0.076354623
0
0.085553723
0
0.095363957
0
0.10595997
0
0.11723624
-2.20002e-18
0.12903954
-1.9592927e-14
0.14139873
-3.7667124e-14
0.15438875
0
0.16801668
0
0.18239368
0
0.0072267261
0
0.014011784
0
0.019777837
0
0.025924209
0
0.032965504
0
0.040132272
-1.4007353e-14
0.04750696
-1.3460533e-14
0.055422088
0
0.063672187
0
0.072072935
-2.3912548e-14
0.080681009
0
0.089724109
0
0.099438159
2.1232059e-14
0.10984406
-2.0403425e-14
0.12082433
-1.9149549e-18
0.13232355
0
0.14441015
-3.6232827e-14
0.15718028
0
0.17060586
0
0.18481151
0
0.0067923034
0
0.01321315
3.4246551e-18
0.018635974
1.5790884e-14
0.024392408
-1.5171375e-14
0.031060973
0
0.037828522
-2.6122558e-18
0.044757236
-1.346778e-14
0.052242554
0
0.060065016
0
0.068016406
0
0.076130411
-3.1488697e-18
0.084566803
0
0.09353371
0
0.10310014
0
0.11324202
0
0.12393685
1.8863292e-14
0.13516228
0
0.14702688
0
0.15959947
0
0.17285502
3.2217782e-14
0.18690547
0
0.0063763004
0
0.012446348
0
0.017553193
0
0.022943816
-1.5170845e-14
0.02924961
-2.9681849e-18
0.035636362
0
0.042140162
-1.3474565e-14
0.049212126
-1.2950876e-14
0.056626779
1.245048e-14
0.064156911
0
0.071836308
0
0.079781335
2.2121015e-14
0.088133413
0
0.096968119
0
0.10629982
1.964513e-14
0.11617492
-1.8881165e-14
0.12661192
-1.419582e-18
0.13761261
1.7441153e-14
0.1492867
0
0.16170466
0
0.17480024
-3.0997962e-14
0.18870398
8.9165814e-15
0.0059797556
0
0.011713336
0
0.016528024
0
0.021575869
-3.4041253e-18
0.027527422
-1.4581773e-14
0.033551834
0
0.039652616
-2.6949123e-14
0.046329809
2.5905855e-14
0.053353538
1.2453544e-14
0.06048013
1.7864411e-18
0.067755959
0
0.075276559
0
0.083123966
0
0.091348371
0
0.099970598
0
0.10905204
0
0.11868749
1.4200612e-18
0.12890787
-1.745932e-14
0.13971924
1.6779519e-14
0.15124247
0
0.1635155
0
0.1764728
0
0.19025682
-2.9010922e-18
0.0056032782
0
0.01101441
0
0.015558127
0
0.02028488
-3.4224223e-18
0.025890591
-1.4584223e-14
0.031569896
-1.4018692e-14
0.037291351
-1.3479196e-14
0.04359373
-1.2959212e-14
0.050242029
1.2458129e-14
0.056979018
-1.1980872e-14
0.063870373
0
0.071008113
0
0.07842699
0
0.08614107
-2.2755688e-18
0.094159932
0
0.10255452
0
0.11141034
-1.8184975e-14
0.12082739
1.7477607e-14
0.13086783
1.6796539e-14
0.14152829
0
0.15292483
-3.103755e-14
0.1650817
0
0.1779082
0
0.19158655
-8.9183546e-15
0.0052469653
8.561675e-15
0.010349698
1.7621423e-18
0.014640799
0
0.019066926
0
0.024335533
0
0.029686742
0
0.03505288
0
0.040999171
0
0.047288589
2.0647786e-18
0.053648787
-1.1985713e-14
0.060169475
1.152397e-14
0.066948693
1.1082906e-14
0.073989003
0
0.081271331
0
0.088777368
-1.970107e-14
0.096591176
0
0.10477372
0
0.11340035
0
0.1226427
-1.6814957e-14
0.13253783
1.6160784e-14
0.14307292
0
0.15437006
-2.9863169e-14
0.1664139
0
0.17913013
2.7611039e-14
0.19271387
0
0.004910504
8.5623196e-15
0.0097193214
0
0.013773318
7.9003308e-15
0.017917976
0
0.022859102
0
0.02789839
0
0.032933501
0
0.038541621
0
0.044488289
-1.2467947e-14
0.05048573
-2.3978298e-14
0.056646926
-1.6605073e-18
0.063085492
1.108731e-14
0.0697761
1.3421456e-18
0.076682717
0
0.083750897
0
0.091048748
0
0.098680918
0
0.10665415
0
0.1150821
-1.0002855e-18
0.12417349
0
0.13395031
1.5549779e-14
0.14438638
0
0.1556
-2.8734569e-14
0.1675534
0
0.1801595
0
0.19365159
-2.9061716e-18
0.0045932789
2.5005376e-18
0.0091226598
-8.2249175e-15
0.012953123
-1.5826037e-18
0.016834379
1.7111106e-18
0.021459451
0
0.026201446
0
0.030929718
1.3484455e-14
0.036216457
0
0.041836436
-1.2471176e-14
0.047486029
-1.1993932e-14
0.053299094
1.1535309e-14
0.059410254
1.1092653e-14
0.065771025
-1.3665127e-18
0.072336771
-1.0259633e-14
0.079022758
1.9733533e-14
0.08586888
0
0.09301773
1.8239844e-14
0.10047121
0
0.10822342
0
0.11648361
1.6198623e-14
0.12546043
0
0.13513814
-6.2796601e-19
0.14549712
1.4381763e-14
0.15664534
-2.764984e-14
0.1685089
0
0.18101737
0
0.19443646
0
0.004294605
0
0.0085584864
1.8168829e-18
0.012177743
7.8999078e-15
0.015812596
-1.7034942e-18
0.020134706
1.5175985e-18
0.024593207
0
0.029037009
-1.348906e-14
0.034019595
-1.297086e-14
0.039327302
0
0.044645223
1.8251952e-18
0.050122329
0
0.055917852
-1.1099028e-14
0.061963457
-1.0675305e-14
0.06820826
1.0266104e-14
0.074553058
-9.8731178e-15
0.081004916
0
0.087701031
0
0.094703606
-1.7553925e-14
0.101955
0
0.10951638
0
0.11764598
-1.5587678e-14
0.12652635
1.4981479e-14
0.13613036
1.4397391e-14
0.14642814
4.6684457e-19
0.15752601
0
0.16931369
0
0.18172406
0
0.19507794
0
0.0040134411
0
0.008025487
-8.2258401e-15
0.011444195
0
0.014849093
7.59307e-15
0.018882685
0
0.023070737
-7.012952e-15
0.027249766
0
0.031944658
0
0.036954697
1.2474429e-14
0.041957944
0
0.047112739
0
0.052603767
0
0.058345257
0
0.06428441
-1.0273212e-14
0.070309183
-9.8046721e-19
0.076406316
-9.5018205e-15
0.082697123
0
0.089273744
0
0.096103994
0
0.10315772
0
0.11056959
-6.5710771e-19
0.11859703
-1.5000855e-14
0.12740854
-1.4416196e-14
0.13694819
-4.2937691e-19
0.14720306
0
0.15826276
-2.5604934e-14
0.16997113
0
0.1822959
0
0.19559369
8.920579e-15
0.0037484079
0
0.0075215939
0
0.010750859
-7.9023618e-15
0.013940791
0
0.017700765
0
0.021631484
-1.2916303e-18
0.02556276
1.3280883e-18
0.029986053
1.2972229e-14
0.034712216
0
0.039417497
0
0.044264712
1.1544574e-14
0.0494632
2.2212872e-14
0.054910612
1.0683562e-14
0.060555563
-1.0277379e-14
0.066275124
0
0.072044362
-9.5096993e-15
0.077974885
9.1450622e-15
0.084154248
0
0.090584884
0
0.097229011
-1.5357266e-18
0.10411909
0
0.11141794
0
0.11937242
0
0.12812333
0
0.13761592
0
0.14783896
1.2816138e-14
0.15887013
-2.464147e-14
0.17050983
0
0.18274968
2.279154e-14
0.19598842
1.7180376e-05
0.0041058604
0
0.007043095
-8.2246798e-15
0.010095786
0
0.013084969
-1.6678955e-18
0.016587274
-7.2972746e-15
0.020272677
0
0.023972194
-6.746823e-15
0.028138221
0
0.032593383
0
0.037017511
0
0.041572352
0
0.046490131
0
0.051653158
0
0.057014645
0
0.062441068
0
0.067896997
-9.5161724e-15
0.073499076
-9.1530989e-15
0.079325719
-8.8021898e-15
0.085377052
0
0.091636374
0
0.098109674
0
0.10487371
0
0.11209417
1.4455448e-14
0.11999292
1.3892463e-14
0.12869833
0
0.13814816
2.566339e-14
0.14835562
1.2334056e-14
0.15936505
0
0.17093709
0
0.18309805
-2.1936887e-14
0.19629313
2.8867631e-05
0.0040914702
4.7807871e-05
0.0076717778
0
0.0094729602
0
0.012279168
1.5185268e-14
0.015539251
-1.5203753e-18
0.018991569
1.3059644e-18
0.022473593
0
0.026396173
-6.4888426e-15
0.03059151
-6.240078e-15
0.034750964
0
0.039029085
-1.1549906e-14
0.043677367
0
0.048566633
-1.0691267e-14
0.053654049
1.0287791e-14
0.058797758
0
0.063953126
9.5212637e-15
0.069246842
0
0.074754984
8.8097691e-15
0.080465758
8.473119e-15
0.086362432
0
0.092448394
-1.5666272e-14
0.098777929
1.5060581e-14
0.10545637
0
0.11262366
-1.3912302e-14
0.12047962
0
0.12914249
2.3900389e-19
0.13856568
-2.1238166e-19
0.14876241
1.1870351e-14
0.15976255
-2.2824738e-14
0.17127482
0
0.18336205
-2.1114898e-14
0.19651092
3.5678071e-05
0.0040768297
8.0464078e-05
0.0076846488
7.0770254e-05
0.010259369
0
0.011516626
0
0.01455371
-7.2980505e-15
0.017785207
-1.3141054e-18
0.021062212
-6.7465473e-15
0.024754383
0
0.028701528
6.2407949e-15
0.032611264
-6.002803e-15
0.0366287
0
0.041017813
0
0.045641666
0
0.050465972
0
0.055338008
-9.9014234e-15
0.060202984
9.5266204e-15
0.065203414
9.1660097e-15
0.070419643
-6.0639546e-19
0.07582499
-8.480943e-15
0.081390059
0
0.08711956
0
0.093045943
0
0.099265711
0
0.10589237
0
0.11302523
1.338987e-14
0.1208471
0
0.12948022
0
0.13887597
-1.5720245e-19
0.14907712
-1.1424744e-14
0.16007472
2.1968294e-14
0.17153186
0
0.18355167
0
0.19666017
3.8244951e-05
0.0040627481
9.9618251e-05
0.0076944331
0.00011934646
0.01032353
8.6806175e-05
0.012373687
0
0.013623663
0
0.016650388
0
0.01973388
1.3495316e-14
0.02320855
1.2825397e-18
0.026918569
6.2414165e-15
0.03059187
-6.0053906e-15
0.034364655
9.1025225e-19
0.038503813
0
0.042870392
0
0.047441744
0
0.052053971
0
0.056639412
-9.5314487e-15
0.061358912
9.1709022e-15
0.066301153
-8.8231923e-15
0.071426733
0
0.076690731
8.1638353e-15
0.082098884
0
0.087667998
0
0.093456606
0
0.099607171
-1.3952692e-14
0.10620791
0
0.11331868
0
0.12111517
-1.2384831e-14
0.1297175
1.1676937e-19
0.13909748
-1.1439502e-14
0.14930813
1.0996391e-14
0.1603149
2.1145145e-14
0.17172775
0
0.18368662
0
0.196741
3.7199903e-05
0.0040494858
0.00010696609
0.0077032681
0.0001480582
0.010379902
0.00014649971
0.012477781
0.00010005491
0.014499729
0
0.01557763
0
0.018484596
0
0.021753091
0
0.025238371
1.0461757e-18
0.028686686
0
0.032229255
5.7778274e-15
0.03612809
0
0.04024427
0
0.04457242
0
0.048938945
0
0.053255885
-9.5357756e-15
0.05770433
9.1766718e-15
0.062387341
0
0.067254038
1.6989253e-14
0.072239317
-8.1716979e-15
0.077347162
0
0.082606329
7.5582134e-15
0.088029772
0
0.093712997
0
0.099825918
0
0.10642174
0
0.11351952
-1.2404014e-14
0.12129549
-8.891136e-20
0.12987301
0
0.13923539
1.1010444e-14
0.14947019
1.0584333e-14
0.16049314
0
0.17187349
0
0.18377175
1.8834015e-14
0.19677412
3.3183181e-05
0.0040373303
0.00010421572
0.0077112045
0.00015929036
0.010431892
0.00018185872
0.012569086
0.00016864794
0.014626691
0.0001118604
0.01645262
0
0.017305469
0
0.020382393
0
0.023655046
6.2424225e-15
0.026890102
9.0369164e-19
0.030215484
-1.1557099e-14
0.033883625
-5.5612546e-15
0.037756798
0
0.041850069
0
0.045984548
0
0.050046401
0
0.054234482
0
0.058668768
0
0.063291806
-4.9776966e-19
0.068019223
0
0.072842637
-7.867335e-15
0.077807579
-7.5666567e-15
0.082937044
7.2762156e-15
0.088233284
0
0.093842518
0
0.099952196
0
0.10655261
0
0.11364293
0
0.12139986
1.1473228e-14
0.12994942
2.0588523e-20
0.1393053
0
0.14956594
1.0188098e-14
0.16062196
0
0.1719805
0
0.1838189
0
0.19675774
2.6826196e-05
0.0040265036
9.3112709e-05
0.0077183004
0.00015550202
0.010479297
0.00019578036
0.012652128
0.00020911895
0.014736172
0.00018833561
0.016629739
0.00012148806
0.018165252
-6.7475662e-15
0.01908817
-6.489832e-15
0.022162995
0
0.025197182
-1.2014285e-14
0.028317375
9.1625794e-19
0.031764191
-5.562022e-15
0.035401625
-1.070467e-14
0.039269134
-5.1503137e-15
0.043184013
0
0.047004872
0
0.050943657
9.1845543e-15
0.055139217
0
0.059530296
8.5065046e-15
0.064015878
0
0.068573225
7.8742361e-15
0.073250371
-1.6030435e-19
0.078103387
0
0.083117178
-7.0048624e-15
0.088309285
0
0.093880029
0
0.099999996
1.2443491e-14
0.10661323
0
0.11369724
0
0.12143671
0
0.12996315
0
0.13930776
7.8738437e-21
0.14960867
-3.0961604e-20
0.16070711
-8.5582888e-20
0.17205188
0
0.18383081
-1.7455717e-14
0.19669667
1.8761031e-05
0.0040171391
7.5383899e-05
0.0077242789
0.0001391788
0.010521666
0.00019123671
0.012726494
0.00022487855
0.014832938
0.00023327181
0.016781746
0.00020463372
0.018420677
0.0001297573
0.019908255
-1.2875866e-18
0.020753095
0
0.023602695
0
0.02652991
-9.1461811e-19
0.029764318
8.3093944e-19
0.033174129
0
0.036824619
-5.1526509e-15
0.040531512
-4.9589047e-15
0.044125055
0
0.047826346
0
0.051793051
0
0.055961692
0
0.06021804
0
0.06452724
0
0.06892817
0
0.07349646
-8.1911725e-20
0.078258876
0
0.083169597
0
0.088280429
0
0.093840018
0
0.099987714
-1.1977959e-14
0.10661331
0
0.11369456
0
0.12141711
-1.0629693e-14
0.1299157
1.0215867e-14
0.13925676
-9.8196034e-15
0.14960193
9.4406028e-15
0.16075628
0
0.17209587
1.7465326e-14
0.18381207
-1.6805882e-14
0.19658945
9.6113831e-06
0.0040093096
5.2787588e-05
0.0077288603
0.000112867
0.010558304
0.00017126115
0.012791562
0.00021942666
0.014916906
0.00025058968
0.016915052
0.0002535413
0.018645275
0.00021873111
0.020242968
0.00013698183
0.021499703
6.2441501e-15
0.022095044
0
0.024847467
0
0.027878878
-8.2063147e-19
0.031069555
5.3542958e-15
0.034512249
0
0.038021837
4.9600102e-15
0.041400769
9.5494775e-15
0.04487584
0
0.048623625
0
0.052579771
0
0.056617779
-8.1959309e-15
0.060692768
2.0422607e-19
0.064834238
7.5885915e-15
0.069120652
-7.3004661e-15
0.073612714
-7.0218944e-15
0.078296596
3.2352946e-20
0.083114008
-6.4925682e-15
0.088170235
0
0.093740399
0
0.099919977
6.1570801e-20
0.10656396
0
0.11364167
0
0.12134848
-1.023183e-14
0.12981918
0
0.13915302
6.3217367e-20
0.14955625
0
0.16077135
1.7479874e-14
0.17211394
0
0.18376409
1.1388543e-19
0.1964415
0.0040030949
0
2.7073092e-05
0.0077319837
7.9151521e-05
0.010588785
0.00013896105
0.012846784
0.00019632491
0.014987915
0.00024427442
0.01702965
0.00027245891
0.018843925
0.00027121086
0.020539087
0.00023095821
0.021906793
0.0001420125
0.022739569
6.0070082e-15
0.02325917
0
0.026102936
0
0.029084481
-5.354934e-15
0.032326769
6.7841544e-19
0.035649839
4.9609775e-15
0.03882611
-4.7759033e-15
0.042086606
-4.5970849e-15
0.045624332
0
0.049376883
0
0.053206813
-3.5114373e-19
0.057061014
0
0.060958244
8.5543562e-20
0.06497675
7.3074277e-15
0.069189419
0
0.073625367
-6.7610343e-15
0.078232825
0
0.082965527
-1.0989063e-19
0.087988852
1.201672e-14
0.093589966
0
0.099811304
0
0.10647147
0
0.11354941
0
0.1212364
0
0.1296741
0
0.13900852
9.099717e-15
0.14947
0
0.16075873
0
0.17210996
0
0.18367987
-1.5579747e-14
0.19625187
0.0077335018
0
0.0039984344
-9.5890192e-06
4.0648896e-05
0.010612981
9.7502716e-05
0.012891993
0.00015916406
0.015045756
0.00021835635
0.01712562
0.00026567692
0.019016238
0.00029162587
0.020800534
0.00028640315
0.022265821
0.00023939312
0.023215163
0.0001449245
0.023791059
0
0.024426577
0
0.027215729
-5.3546888e-15
0.030265223
-6.9246614e-19
0.033410177
4.3991381e-19
0.036395915
4.776579e-15
0.039452982
-4.5983231e-15
0.042789015
4.4270799e-15
0.046346101
0
0.049977206
0
0.053622936
-7.8973733e-15
0.057290445
0
0.061057833
7.313884e-15
0.064999211
0
0.069162389
0
0.073546096
-6.5099584e-15
0.0780726
0
0.082734461
-6.0178883e-15
0.087754449
-1.1568594e-14
0.093399876
0
0.099664641
-1.0683809e-14
0.10634584
0
0.11341997
0
0.12108618
0
0.12949113
0
0.13882256
-8.7601312e-15
0.14935297
0
0.16071876
0
0.17207345
0
0.18356175
-1.5001524e-14
0.19601739
0.010630296
0
0.0077336283
-2.7052114e-05
0.0039952302
-1.8672968e-05
5.0099752e-05
0.012926832
0.00011160079
0.015090162
0.00017688205
0.017202503
0.00023753627
0.019161551
0.00028451182
0.021026582
0.00030798261
0.022580958
0.00029679958
0.023631756
0.00024429456
0.024342493
0.00014689756
0.024829737
0
0.025454346
0
0.028323813
0
0.031298068
-4.3859809e-19
0.034104466
3.359873e-19
0.036969425
0
0.040112327
0
0.043480498
-4.2630544e-15
0.046920889
0
0.05036989
7.9016111e-15
0.053821512
0
0.057353316
-2.6676545e-20
0.061040366
7.04344e-15
0.064930221
6.7763653e-15
0.06905628
-1.0394894e-19
0.073382031
6.2683859e-15
0.077822812
0
0.082435679
-5.7937144e-15
0.087474956
0
0.093178259
0
0.099491785
0
0.10618968
0
0.1132616
0
0.12090346
-9.1267259e-15
0.12927241
8.7724602e-15
0.1386059
0
0.14920758
8.1097228e-15
0.16065264
-1.560033e-14
0.17200813
0
0.18340527
-1.4445326e-14
0.19574039
0.012950405
0
0.010641118
-4.0697291e-05
0.0077321802
-5.2703315e-05
0.0039935038
-2.6636537e-05
5.7308983e-05
0.015120902
0.00012393095
0.017259801
0.00019245532
0.019278999
0.0002545043
0.021216473
0.00030047331
0.022851472
0.00031906405
0.023995661
0.00030285455
0.024827571
0.00024765968
0.025455255
0.00014811045
0.025717286
0
0.026495155
0
0.02930748
0
0.031946187
-4.7785865e-15
0.03462892
-4.600359e-15
0.037587955
0
0.040774053
0
0.044031066
-4.1057626e-15
0.047293183
0
0.050541467
0
0.053852611
0
0.057303337
0
0.060933859
6.7832142e-15
0.064789843
0
0.068877731
0
0.073123925
6.0356926e-15
0.077487374
1.1605683e-14
0.082083229
-1.8033375e-19
0.087165672
0
0.092932826
0
0.099294955
-1.9800335e-14
0.1060116
0
0.11307608
0
0.12069417
0
0.12902488
-8.445493e-15
0.13836369
-8.1194935e-15
0.14904226
-7.808062e-15
0.16055889
0
0.17191019
0
0.18321561
0
0.19542462
0.015137447
0
0.012963947
-5.0203329e-05
0.010645011
-7.93349e-05
0.0077288245
-7.5199695e-05
0.0039931811
-3.2868692e-05
6.3599898e-05
0.017297335
0.0001348589
0.01936789
0.00020627843
0.021369212
0.00026876718
0.023076828
0.00031118767
0.024306292
0.00032555746
0.025251465
0.00030705364
0.026007701
0.00024970147
0.026416945
0.00014872148
0.026623135
-5.1563385e-15
0.027426495
0
0.029915208
0
0.032426561
4.6011883e-15
0.035209182
4.4305549e-15
0.038219965
-8.5315788e-15
0.041300392
4.1072251e-15
0.044385219
6.9065031e-20
0.047441534
0
0.050545254
0
0.053776627
7.0551621e-15
0.057166228
0
0.060758313
-6.5326367e-15
0.064584139
0
0.068609024
-6.0439434e-15
0.072770537
5.8115999e-15
0.077083821
0
0.081693532
5.369807e-15
0.086831793
0
0.092670619
0
0.099082557
9.5303449e-15
0.10581248
0
0.11287159
0
0.12045985
0
0.12875501
-1.8557085e-19
0.13810537
1.429709e-19
0.14885634
-7.5179525e-15
0.16044125
1.1938904e-19
0.17178362
0
0.18298487
1.3395838e-14
0.19507292
0.01731478
0
0.01514268
-5.7385702e-05
0.01296672
-9.789697e-05
0.010640904
-0.00011324634
0.00772371
-9.2802185e-05
0.0039941907
-3.6757674e-05
6.9214035e-05
0.019427818
0.00014458987
0.021484096
0.00021781729
0.023256039
0.00027826386
0.02456294
0.00031748127
0.02561327
0.00033008552
0.026491153
0.00030961141
0.027036979
0.00025079269
0.027406962
0.00014888065
0.027414045
0
0.027996425
0
0.030356975
-4.6019102e-15
0.032969602
0
0.035811974
-4.2667014e-15
0.038722202
0
0.041638364
3.9560734e-15
0.044513495
-1.5010656e-20
0.047421837
0
0.050449188
0
0.053615746
0
0.056959609
0
0.060522593
0
0.064300659
-6.0514696e-15
0.068244898
5.8196479e-15
0.072334715
-5.5954781e-15
0.076633425
5.3788199e-15
0.08127802
-5.1698428e-15
0.086484323
0
0.092395803
0
0.098856224
1.826893e-19
0.10559995
0
0.11264683
0
0.12020638
8.1430988e-15
0.1284693
0
0.13783611
-7.526752e-15
0.14865721
7.2388818e-15
0.16029861
1.3927721e-14
0.17161903
0
0.18271932
0
0.19468297
0.019458262
0
0.017316592
-6.3627541e-05
0.015136114
-0.00011189033
0.012956237
-0.00013977649
0.010629
-0.00013977737
0.0077171466
-0.00010377714
0.0039964354
-3.7697768e-05
7.4223283e-05
0.021560613
0.00015265768
0.023388285
0.00022544199
0.024765489
0.00028383554
0.025911922
0.00032191331
0.026904411
0.00033287223
0.027580381
0.00031104471
0.028105196
0.00025111077
0.028276976
0.00014754858
0.027835191
4.780049e-15
0.028405594
0
0.030862861
0
0.033542088
-4.2679305e-15
0.036289061
4.1098328e-15
0.039045007
0
0.04174957
2.6202609e-20
0.044473661
-3.6690521e-15
0.047310392
0
0.050270384
0
0.053383791
0
0.056695812
0
0.060217182
-6.0590019e-15
0.063922721
-5.8274863e-15
0.067791287
0
0.071842415
2.9982238e-19
0.076150137
5.178829e-15
0.080846743
-4.977097e-15
0.086125473
0
0.092114677
0
0.098622148
8.8317334e-15
0.10537256
0
0.1124075
8.1562708e-15
0.11993676
7.8397654e-15
0.12817587
0
0.13756231
-7.2471902e-15
0.14844536
6.9705272e-15
0.16013171
0
0.17142207
0
0.1824173
0
0.19425904
0.021598133
0
0.01946538
-6.9247617e-05
0.017302585
-0.00012403368
0.015114512
-0.00015975985
0.012932445
-0.0001725444
0.010608961
-0.00015630083
0.0077092048
-0.00010641476
0.0039997283
-3.5081908e-05
7.8351691e-05
0.023473291
0.00015795624
0.024913976
0.00022992641
0.026147235
0.00028783054
0.027246315
0.00032467049
0.028045631
0.00033445087
0.028717375
0.00031147653
0.029042907
0.00024888376
0.028761765
0.00014480142
0.02809853
0
0.028878171
0
0.031402783
4.2687412e-15
0.033994019
-4.1108234e-15
0.03659693
5.4826141e-20
0.039141536
0
0.041692513
0
0.044350971
-3.5343682e-15
0.04711925
0
0.050019147
0
0.053096659
0
0.056367674
0
0.059823305
0
0.063460512
3.4799631e-19
0.067276525
0
0.071308974
5.1875675e-15
0.075648437
-4.9854444e-15
0.080405212
0
0.085764105
0
0.091829709
0
0.098381024
1.9773483e-19
0.10513624
0
0.11215351
7.8520788e-15
0.11965766
2.0403361e-19
0.12787708
0
0.13728666
6.9784056e-15
0.14822551
6.7122774e-15
0.15993763
0
0.17119211
0
0.18208558
0
0.19380596
0.023510427
0
0.021604456
-7.4271896e-05
0.019448745
-0.00013498552
0.017268049
-0.0001770922
0.015078142
-0.0001972529
0.01289503
-0.00019293341
0.010580746
-0.00016021343
0.0076997357
-9.9005831e-05
0.0040039652
-2.8318295e-05
8.1050563e-05
0.025008689
0.00016107614
0.026319791
0.00023316449
0.027515502
0.00029029813
0.028431185
0.00032624519
0.029241094
0.00033496172
0.029714436
0.00030869336
0.029583114
0.00024422576
0.029090844
0.0001418061
0.028427081
4.4327477e-15
0.029385367
4.2691321e-15
0.031829647
4.1116862e-15
0.034287093
3.959687e-15
0.036681408
-4.7088879e-20
0.03907053
0
0.041562189
3.5361633e-15
0.044152476
-3.4047149e-15
0.046854588
0
0.04971488
0
0.052751789
0
0.055959383
5.841721e-15
0.059352778
5.6191783e-15
0.062940227
3.7946213e-19
0.066716143
0
0.070749892
3.1913565e-19
0.075134801
0
0.079961453
4.6125439e-15
0.085400937
0
0.091545523
0
0.098136298
2.0371732e-19
0.10488967
0
0.111891
0
0.11936874
-7.2670138e-15
0.12757708
-1.881447e-19
0.13701256
-6.7195326e-15
0.14799165
-1.2927532e-14
0.15972008
0
0.17093367
0
0.18171979
0
0.19332681
0.025049432
0
0.02351005
-7.8372391e-05
0.021579108
-0.00014477334
0.019401316
-0.00019271216
0.017213157
-0.00021868017
0.015027015
-0.00022064261
0.012843504
-0.00019772944
0.010543874
-0.000148972
0.0076889557
-7.9889943e-05
0.004008936
-1.6814294e-05
8.2647348e-05
0.026430032
0.00016334054
0.027711288
0.00023517346
0.028735558
0.00029174017
0.029673899
0.00032677764
0.030288388
0.00033198616
0.030304862
0.00030296718
0.02997248
0.000239272
0.029489912
0.00013908594
0.028790613
0
0.02978737
0
0.032107899
-3.9606011e-15
0.03436185
-3.8144057e-15
0.03659985
3.673512e-15
0.038935677
3.5377523e-15
0.041360521
-6.8130483e-15
0.043879647
-1.5970842e-19
0.046539175
0
0.049359878
0
0.052332757
5.8484859e-15
0.055476798
-5.6261486e-15
0.058827377
0
0.062368965
0
0.066115645
5.0026452e-15
0.070174044
3.1953194e-19
0.074619894
0
0.079517723
0
0.085042373
0
0.091261845
0
0.09788849
-7.8791507e-15
0.10463791
0
0.11161754
0
0.11907387
-6.9969315e-15
0.12727755
0
0.13673881
1.5560459e-19
0.14774783
0
0.15947715
0
0.17064146
0
0.18132687
0
0.19282146
0.026478059
0
0.025048049
-8.1044696e-05
0.02347244
-0.00015273719
0.02151375
-0.00020665378
0.019323105
-0.00023793183
0.017138083
-0.00024469691
0.014960638
-0.00022624781
0.012777666
-0.00018379052
0.010499386
-0.0001201177
0.0076776208
-4.7424223e-05
0.0040142743
8.9186102e-15
8.3802088e-05
0.027833439
0.00016474511
0.028957205
0.00023635233
0.030013754
0.00029221185
0.03076165
0.00032386802
0.03092337
0.00032584617
0.030747975
0.00029688818
0.030437346
0.00023477702
0.029925647
0.00013625502
0.029054481
0
0.030050573
0
0.032175444
3.8154267e-15
0.034273185
3.6747581e-15
0.036463033
-1.2267422e-19
0.038734206
3.4081105e-15
0.041084041
3.28184e-15
0.043558463
-1.7937783e-19
0.046180683
0
0.048937229
0
0.051838767
0
0.054937929
1.0837331e-14
0.058248083
0
0.061748081
4.2725432e-19
0.065493594
0
0.069597305
0
0.074106808
0
0.079079948
-4.2749173e-15
0.084687211
0
0.09098282
0
0.097639881
0
0.10437774
0
0.11133674
-7.0077014e-15
0.11877341
0
0.12698126
6.4784828e-15
0.13646748
6.2313154e-15
0.14748889
-5.994825e-15
0.15921286
-1.1537158e-14
0.17032194
2.221007e-14
0.18090595
4.5664533e-19
0.19228247
0.027881516
0
0.026477253
-8.2640324e-05
0.025004308
-0.00015793363
0.023387561
-0.00021798513
0.021408505
-0.00025508561
0.019214616
-0.00026619355
0.017042938
-0.00025105086
0.014879906
-0.00021046974
0.012697917
-0.00014811354
0.010447973
-7.12382e-05
0.0076644897
-8.5676123e-15
0.0036580494
0
8.4513219e-05
0.029095322
0.00016556542
0.030259362
0.00023671578
0.031131517
0.00028961477
0.031435502
0.00031792135
0.031413662
0.00031938295
0.031269665
0.00029138961
0.030938607
0.00023006292
0.030259047
0.00013286912
0.029183571
0
0.030112961
0
0.032083346
0
0.034136459
-3.5402529e-15
0.036264664
-1.6819939e-19
0.038458091
-3.2835864e-15
0.040761692
3.161691e-15
0.043201918
3.0434466e-15
0.045761305
0
0.048437632
0
0.051285504
0
0.05434906
0
0.057620622
0
0.06110124
0
0.064868209
4.6375726e-15
0.069025982
-4.4569226e-15
0.073603057
0
0.078648306
4.1151544e-15
0.084341175
0
0.090707557
0
0.097389539
0
0.10411256
0
0.11104714
0
0.11847108
6.4873303e-15
0.12668803
0
0.13618936
-6.0007642e-15
0.14722124
5.7734045e-15
0.15892256
-1.1111953e-14
0.16997345
0
0.18045791
0.0017508272
0.1899482
0.029148881
0
0.027872194
-8.3770905e-05
0.026426624
-0.00016104105
0.024905803
-0.00022539131
0.023255551
-0.00026902805
0.021263658
-0.00028527478
0.019076079
-0.00027303443
0.016928071
-0.00023372367
0.014785181
-0.00016975364
0.012604961
-8.7765404e-05
0.010386502
0
0.0070366671
-8.5678202e-15
0.0039112027
8.9212978e-15
8.4930679e-05
0.030410108
0.0001657992
0.031396583
0.00023461054
0.031837944
0.00028434636
0.031966401
0.00031166922
0.03198319
0.00031353467
0.031827419
0.0002856061
0.031334946
0.00022444202
0.030449368
0.00012885451
0.029119107
0
0.030022554
0
0.03194803
0
0.033943684
-3.4108643e-15
0.035992533
3.2849371e-15
0.038138248
-3.1635096e-15
0.04041131
3.0459829e-15
0.042791748
-2.9325706e-15
0.045263276
0
0.047874581
0
0.050684264
0
0.053712922
0
0.056965289
-4.6866719e-19
0.060451019
0
0.064251271
4.4649652e-15
0.068467176
4.2910771e-15
0.073108197
-4.1229519e-15
0.078227286
0
0.08400217
0
0.090438099
0
0.09713775
0
0.10384004
0
0.11075281
6.4964376e-15
0.11816453
-6.2466123e-15
0.12638991
-6.0078342e-15
0.13590817
0
0.14693105
5.5606531e-15
0.15861154
3.8236938e-19
0.16959121
0.0034099018
0.17831649
0.0015897599
0.18773633
0.030465436
0
0.029135965
-8.444734e-05
0.027805553
-0.00016321316
0.026311685
-0.0002298304
0.024752875
-0.00027817473
0.023077208
-0.00030082743
0.021079135
-0.00029248089
0.018906852
-0.00025408305
0.016793919
-0.00018870128
0.014677005
-0.00010070765
0.012494599
7.9020664e-15
0.0095913495
8.2256495e-15
0.0075163017
0
0.0041813327
-8.9180056e-15
8.503359e-05
0.031556121
0.00016432022
0.032128237
0.0002303823
0.032403184
0.00027879382
0.032574743
0.00030600168
0.032587901
0.00030736248
0.032278511
0.0002787202
0.031580881
0.00021768553
0.030436137
0.00012419146
0.028911094
0
0.029891487
0