/*--------------------------------*- C++ -*----------------------------------*\
| =========                 |                                                 |
| \\      /  F ield         | OpenFOAM: The Open Source CFD Toolbox           |
|  \\    /   O peration     | Version:  v2012                                 |
|   \\  /    A nd           | Website:  www.openfoam.com                      |
|    \\/     M anipulation  |                                                 |
\*---------------------------------------------------------------------------*/
FoamFile
{
    version     2.0;
    format      ascii;
    class       volScalarField;
    location    "108.032925162963693";
    object      p;
}
// * * * * * * * * * * * * * * * * * * * * * * * * * * * * * * * * * * * * * //

dimensions      [0 2 -2 0 0 0 0];


internalField   nonuniform List<scalar> 
9200
(
-0.0010991942
-0.002145629
0.002665785
-0.0031804732
0.0008371625
0.0034900086
-0.005098029
-0.0015130273
0.00062951942
0.0074166284
-0.0073494353
-0.0055458563
-0.0040167101
0.0036866
0.013501656
-0.010067934
-0.010715104
-0.011450417
-0.0023900198
0.0093554424
0.021971856
-0.013022474
-0.017272059
-0.021359448
-0.012185589
0.0026863088
0.018062796
0.03230232
-0.016055149
-0.025060035
-0.034229739
-0.025669837
-0.0082664349
0.011783351
0.029190041
0.043772044
-0.018917654
-0.033976003
-0.050089644
-0.043856464
-0.023688907
0.0012368404
0.024013318
0.041819819
0.055583648
-0.02131614
-0.043806324
-0.068952463
-0.067364388
-0.045192728
-0.013976032
0.015375652
0.03830341
0.054904697
0.067017943
-0.022946605
-0.054281336
-0.090602225
-0.096951594
-0.074075853
-0.035565132
0.0026906488
0.032591476
0.0533263
0.06754265
0.077507457
-0.023404713
-0.065159539
-0.1146118
-0.13335972
-0.11219397
-0.065588174
-0.015418944
0.024041143
0.0509287
0.067885206
0.079064546
0.086682449
-0.022312708
-0.076156783
-0.14023361
-0.17737276
-0.16142718
-0.10710287
-0.040830908
0.011822962
0.047132933
0.068666031
0.081096283
0.08904931
0.094354854
-0.019791885
-0.087255756
-0.16647604
-0.22934445
-0.2259031
-0.15818776
-0.076014908
-0.0054748066
0.04167862
0.069394562
0.08458612
0.09242758
0.097298695
0.10048322
-0.015901517
-0.098222458
-0.19269185
-0.28926034
-0.30945736
-0.23256927
-0.12416314
-0.02969523
0.03378983
0.070250194
0.089093568
0.098005245
0.10165043
0.10378653
0.1051297
-0.010706329
-0.10877921
-0.21730276
-0.35564145
-0.41784811
-0.33292552
-0.19210939
-0.063761466
0.022584332
0.070973309
0.095055604
0.10534151
0.10867517
0.10875983
0.10860427
0.10842171
-0.004341758
-0.11839521
-0.24196959
-0.42575356
-0.55751258
-0.46940654
-0.2873785
-0.11217335
0.0065452764
0.071448033
0.10249599
0.11497115
0.11789748
0.11665057
0.11389453
0.11191334
0.11052128
0.0028796497
-0.12595883
-0.26496156
-0.49836448
-0.73807646
-0.65335746
-0.42234471
-0.18204394
-0.01652226
0.071265311
0.1116865
0.12700052
0.12983637
0.12693673
0.12216592
0.11727257
0.11390934
0.11160309
0.010602742
-0.13063611
-0.28698194
-0.56470748
-0.94381658
-0.89271516
-0.60920439
-0.28434259
-0.050694449
0.069796976
0.12270702
0.141795
0.14455483
0.14005562
0.1328558
0.12554261
0.11914461
0.11479695
0.1118398
0.018257389
-0.13136966
-0.30875158
-0.63462792
-1.1544738
-1.1844737
-0.85466804
-0.4298275
-0.1016208
0.065544284
0.13555971
0.15951244
0.16234326
0.15597006
0.14629193
0.1361375
0.12712657
0.11976411
0.11477424
0.11139329
0.025266751
-0.12720579
-0.32686883
-0.70943701
-1.3469644
-1.5235016
-1.1754425
-0.63326758
-0.17607281
0.056219068
0.14978732
0.18023979
0.18324115
0.17482881
0.16232711
0.14927253
0.13726804
0.12725179
0.11936951
0.1140236
0.11041
0.031141641
-0.11965374
-0.33319985
-0.7705323
-1.4910685
-1.8397732
-1.538424
-0.89010402
-0.2825595
0.038521828
0.16447058
0.20370885
0.2071896
0.19649756
0.18096403
0.16470695
0.14968301
0.13669392
0.12622104
0.11817565
0.11270766
0.10901861
0.035267221
-0.11068638
-0.32958907
-0.80844273
-1.5851117
-2.1013731
-1.8722163
-1.1477556
-0.4152494
0.0097983056
0.17799378
0.22926799
0.23378951
0.22073033
0.20191304
0.18232375
0.16406485
0.14812079
0.13480357
0.12429858
0.11637021
0.11096846
0.10733014
0.037152715
-0.10119761
-0.31812516
-0.82617955
-1.6242845
-2.2820208
-2.1407705
-1.3920911
-0.56032848
-0.029576763
0.18857477
0.2556869
0.26229861
0.24696329
0.22478074
0.20172381
0.18021316
0.16118914
0.1450825
0.1319239
0.12170913
0.11411395
0.10892739
0.10544051
0.036709676
-0.09139708
-0.29720404
-0.816421
-1.6048248
-2.3670495
-2.3195793
-1.5920169
-0.70396
-0.079218522
0.1943546
0.28118423
0.29150908
0.2743544
0.24889715
0.22242722
0.19766881
0.17565068
0.15670422
0.14096956
0.12832427
0.11864056
0.1115424
0.10668481
0.10343001
0.034171039
-0.07993359
-0.27030862
-0.7795305
-1.5367062
-2.357024
-2.4035177
-1.7372421
-0.83080103
-0.14179001
0.19119252
0.30304015
0.3196684
0.30171813
0.27339368
0.24372799
0.21592176
0.19102874
0.16940225
0.15109255
0.13610076
0.12422372
0.11524787
0.10876826
0.10432463
0.10136488
0.029779985
-0.066357405
-0.24287944
-0.72623026
-1.4333559
-2.2642679
-2.3993478
-1.8190456
-0.94005798
-0.2211683
0.17195166
0.31679356
0.34428124
0.32753003
0.29717243
0.264802
0.23428577
0.20682579
0.18271419
0.1620308
0.14472158
0.13072695
0.1197989
0.11165778
0.10588414
0.10191732
0.099297493
0.023663328
-0.053304427
-0.21940165
-0.66265226
-1.3074268
-2.109757
-2.3176765
-1.8348083
-1.0350241
-0.31707784
0.12886989
0.31608539
0.36205379
0.34988064
0.31898242
0.28469288
0.25202278
0.22241145
0.19618374
0.17335786
0.15394481
0.13786953
0.12504474
0.11519146
0.10797289
0.10296539
0.099519152
0.097261854
0.015980953
-0.043133206
-0.19848985
-0.59482409
-1.1715141
-1.9151282
-2.1776147
-1.7995826
-1.1156725
-0.43090234
0.054997303
0.29353223
0.3688981
0.36658209
0.33745655
0.30241176
0.26833661
0.2371529
0.20925661
0.18467612
0.16339363
0.14544001
0.13074752
0.11920818
0.11051479
0.10427564
0.10007262
0.097176631
0.095304122
0.007030023
-0.036066061
-0.17786821
-0.52659976
-1.0340989
-1.7029157
-2.0014945
-1.7316687
-1.186493
-0.56318936
-0.054879466
0.24199121
0.36021656
0.37535567
0.35120998
0.31700168
0.28247547
0.25040616
0.221412
0.19551594
0.17273754
0.15311771
0.13673113
0.12351629
0.11333774
0.10585957
0.10063181
0.097254356
0.094926139
0.093495284
-0.0039240575
-0.031273123
-0.15808091
-0.45946727
-0.89908874
-1.4903634
-1.8093967
-1.6464435
-1.2513578
-0.71185125
-0.20368547
0.15536298
0.33154591
0.37402225
0.35901257
0.32764061
0.29378112
0.26161343
0.2321382
0.20546207
0.1815904
0.16063974
0.14273282
0.12797485
0.11629771
0.10752773
0.10129739
0.097089849
0.094548362
0.092783169
0.091784582
-0.015593108
-0.028148943
-0.14015267
-0.39426631
-0.76943941
-1.2880438
-1.6153456
-1.555545
-1.3127722
-0.87425939
-0.39279853
0.028646265
0.278842
0.36053983
0.35993129
0.33370523
0.30177281
0.27032866
0.24102053
0.21411696
0.18963066
0.16769997
0.14855634
0.13238112
0.11928918
0.10918605
0.10185271
0.096887862
0.093682223
0.091984053
0.090772424
0.09013427
-0.025994017
-0.027166774
-0.12117936
-0.33172443
-0.64833221
-1.1009077
-1.4271837
-1.4628759
-1.3694284
-1.047472
-0.62254016
-0.14249759
0.19822498
0.33291746
0.3531651
0.33478741
0.30616639
0.27627638
0.24776944
0.22118158
0.19657072
0.17407483
0.15397707
0.13660271
0.12216657
0.11076487
0.10225667
0.096371426
0.09268294
0.09049667
0.089581516
0.088917333
0.088642198
-0.035125378
-0.028861705
-0.10131459
-0.26547799
-0.53861726
-0.931722
-1.2501075
-1.3709201
-1.4186879
-1.2293341
-0.88959581
-0.36091317
0.08704348
0.29030926
0.33838634
0.33076744
0.30691146
0.27938146
0.25226854
0.22650177
0.20220747
0.17954561
0.15883907
0.14048251
0.12485413
0.11216583
0.10247113
0.095568518
0.091128132
0.088654476
0.08750204
0.087354316
0.087207807
0.087309743
-0.043108175
-0.032612216
-0.08192566
-0.20006769
-0.4297358
-0.78171207
-1.0928971
-1.282325
-1.460518
-1.4164904
-1.1869562
-0.62456393
-0.054980686
0.23103334
0.3154955
0.32179631
0.30416292
0.27973496
0.25448184
0.22998623
0.20643803
0.18399833
0.16300413
0.1439337
0.12725711
0.11336544
0.10243784
0.094462595
0.089166885
0.086153669
0.084883926
0.084719183
0.085315421
0.085689968
0.086133589
-0.050024688
-0.037695819
-0.06255893
-0.1388019
-0.32577856
-0.63465326
-0.95251242
-1.2011314
-1.5003208
-1.6035702
-1.5080103
-0.92426889
-0.22817193
0.15634484
0.28495034
0.30836877
0.29830086
0.27763618
0.25459681
0.23169852
0.20924359
0.18736447
0.16640828
0.14687782
0.12934762
0.11432567
0.1021802
0.093030924
0.086784288
0.083087471
0.081477543
0.081382582
0.08216037
0.083468276
0.084324202
0.085088678
-0.055916943
-0.043407613
-0.043267857
-0.082345206
-0.22891645
-0.49544294
-0.80748257
-1.1240186
-1.5357596
-1.782601
-1.8471744
-1.249877
-0.42859309
0.067221971
0.24725635
0.2909697
0.28975953
0.27345
0.25287918
0.23180689
0.21070022
0.18966011
0.16902268
0.14929537
0.1311029
0.11507211
0.10171059
0.091336242
0.083986551
0.07947297
0.07735844
0.077119243
0.078158667
0.079831624
0.081810881
0.083117502
0.084187029
-0.060637427
-0.048763428
-0.023914417
-0.031142217
-0.14019863
-0.36599142
-0.66827316
-1.0309454
-1.5589415
-1.9460603
-2.1907397
-1.5923224
-0.64986347
-0.034459771
0.20314996
0.27015231
0.27901506
0.26764256
0.24968516
0.23054207
0.21096984
0.19096115
0.17087646
0.15118922
0.13254159
0.11563134
0.1011033
0.089434788
0.080868611
0.075340809
0.072558492
0.072000825
0.073091067
0.075216052
0.077733809
0.080340993
0.082067695
0.083419764
-0.063994847
-0.052876662
-0.0044404269
0.014762992
-0.060222312
-0.24865587
-0.53472015
-0.93100882
-1.5459088
-2.1038372
-2.5168141
-1.9419737
-0.88485783
-0.14587538
0.15354135
0.24647007
0.26662426
0.26056921
0.24544723
0.22820888
0.21027705
0.19139429
0.17203534
0.15259426
0.13369181
0.11605918
0.10043089
0.087445206
0.077523945
0.070811211
0.067125481
0.06606479
0.067029332
0.06939954
0.072554762
0.075864249
0.079054145
0.081170143
0.082775793
-0.065821266
-0.055356131
0.01436946
0.055431982
0.010904233
-0.14334673
-0.4109272
-0.82902535
-1.4877687
-2.2512796
-2.821857
-2.3084771
-1.1271293
-0.26327231
0.099307216
0.22046129
0.25295746
0.25279836
0.24042685
0.224999
0.20891379
0.19112722
0.17258928
0.15356125
0.13459351
0.11640841
0.099787751
0.085484423
0.074110776
0.066007638
0.061197405
0.059368448
0.060010341
0.06245306
0.066046343
0.070171501
0.074217534
0.077944194
0.08041831
0.082243151
-0.055982091
-0.066064258
0.031841992
0.091695277
0.073496175
-0.050305787
-0.29739529
-0.72661927
-1.4083955
-2.3280475
-3.1299952
-2.6218126
-1.3711317
-0.38315564
0.041657027
0.19250479
0.23826816
0.24423617
0.23527921
0.22119517
0.20714017
0.19033248
0.17264881
0.15414592
0.13528277
0.11672728
0.099255602
0.083688014
0.070788529
0.061122151
0.054919725
0.052059781
0.0520937
0.054408418
0.058276085
0.063028987
0.068060055
0.072786134
0.07700371
0.07980434
0.081835614
0.048025924
-0.054566002
-0.064785059
0.12447038
0.12805252
0.030842007
-0.19515023
-0.62472397
-1.3146287
-2.3764102
-3.3709456
-2.9591043
-1.6069301
-0.50102263
-0.018676463
0.16313406
0.22268461
0.23505089
0.23008703
0.21818878
0.20557939
0.18917495
0.17230971
0.15440614
0.13578292
0.11704218
0.098899151
0.082174334
0.067736846
0.056353464
0.048511156
0.044297653
0.043429644
0.045321031
0.049267358
0.0544979
0.06034133
0.066211772
0.071561029
0.076224047
0.07931915
0.08156006
0.15374769
0.062919071
-0.050997457
-0.062155382
0.17508611
0.10072334
-0.10441107
-0.5274882
-1.212554
-2.3926309
-3.5727964
-3.2908596
-1.8902019
-0.61707645
-0.07931398
0.13232861
0.20631282
0.22572395
0.22449587
0.21587666
0.20264432
0.18780616
0.17167634
0.15437779
0.13610222
0.1173494
0.098746339
0.081037517
0.065119269
0.051926263
0.042204225
0.036318844
0.034181511
0.035336055
0.039065773
0.044590632
0.051113749
0.057974205
0.064616116
0.070532093
0.075595624
0.078950489
0.081397251
0.21500772
0.17935111
0.076501902
-0.04532942
-0.058386329
0.16000181
-0.025097192
-0.43678259
-1.1072041
-2.3780287
-3.7159679
-3.5911071
-2.201454
-0.76067593
-0.14314166
0.10143749
0.18871748
0.21589488
0.21883445
0.21274499
0.19943353
0.18618765
0.17077857
0.15409303
0.13621786
0.11761237
0.098778541
0.080325089
0.063074721
0.048055941
0.036266264
0.028381546
0.024594405
0.024612425
0.027804796
0.033338339
0.040376864
0.048115139
0.055916109
0.063261245
0.069688052
0.075108733
0.078686639
0.081328002
0.20936192
0.24820996
0.20107697
0.088855275
-0.037726875
-0.05368692
0.043142343
-0.3520279
-1.0036525
-2.3327389
-3.7943252
-3.8369169
-2.4905678
-0.95059144
-0.21700403
0.067362102
0.17068794
0.20502343
0.21281885
0.20937322
0.19766929
0.18447089
0.1696707
0.15353233
0.13609494
0.11775065
0.098925481
0.080025441
0.061693473
0.044940231
0.030966553
0.020789048
0.014941736
0.01339328
0.015630616
0.020857148
0.028143764
0.036620102
0.045490629
0.054153915
0.062134223
0.069016731
0.074753904
0.078521316
0.081330347
0.10104441
0.24967492
0.27489314
0.21906179
0.099974916
-0.028430341
-0.048250061
-0.2725851
-0.90624124
-2.2596441
-3.8035852
-4.0058184
-2.7515956
-1.1371593
-0.33438852
0.031284856
0.14915349
0.19347833
0.20627621
0.20594979
0.1963251
0.18282466
0.16835306
0.15267077
0.13565068
0.11765999
0.099055619
0.080058675
0.061001913
0.042735176
0.026569937
0.013860347
0.0055520165
0.0019551958
0.0027742041
0.0072730959
0.014508686
0.023481551
0.033310648
0.043226668
0.052673044
0.061220613
0.068505716
0.074521899
0.078458523
0.081403327
-0.19707647
0.14968429
0.2813454
0.2956153
0.23340218
0.10985554
-0.017737623
-0.04223723
-0.8189879
-2.1634481
-3.7448355
-4.0860074
-2.9606293
-1.3090046
-0.46109968
-0.034655477
0.12821086
0.17854744
0.19875908
0.20271417
0.19463605
0.18119986
0.16671007
0.15143386
0.13480832
0.11718377
0.098993645
0.080264121
0.06094888
0.04153892
0.023314901
0.0079269481
-0.0032167027
-0.0093619124
-0.010497277
-0.0072043786
-0.0004286378
0.0087684839
0.019346407
0.030435981
0.041307618
0.051456665
0.060504338
0.068143098
0.074402849
0.078492728
0.081543104
-0.7379928
-0.12658946
0.18901378
0.30529917
0.31075113
0.24427912
0.11848024
-0.0059992133
-0.035744047
-2.0483158
-3.6233819
-4.0736429
-3.0931066
-1.4491756
-0.58978083
-0.10875974
0.087204291
0.16393891
0.18882837
0.19823772
0.19322911
0.17907951
0.16465907
0.14969887
0.13342753
0.11617485
0.098497881
0.080411759
0.061388593
0.041375211
0.021398796
0.00331478
-0.010976209
-0.020176754
-0.023847907
-0.02232965
-0.016488335
-0.0074503717
0.0036395631
0.015729226
0.027980488
0.039714434
0.050485464
0.059970241
0.067918599
0.074380204
0.078606188
0.081741665
-1.9190823
-0.65592416
-0.065177806
0.21990996
0.32228316
0.3208138
0.2519496
0.12581498
0.0063478383
-0.028806676
-3.4479807
-3.9726306
-3.1386238
-1.5569752
-0.71989556
-0.18674006
0.040333318
0.13597097
0.17796928
0.19305781
0.19035451
0.1767417
0.16177701
0.1473254
0.13138283
0.11441387
0.097321265
0.080179924
0.062084756
0.042172695
0.020961316
0.00033303232
-0.017321711
-0.030062491
-0.036892081
-0.037786191
-0.033457001
-0.025031042
-0.013775335
-0.00088020082
0.012616503
0.025923456
0.038424363
0.049741332
0.059608526
0.067822645
0.074448475
0.078785344
0.081990407
-3.2305673
-1.7798652
-0.57381956
-0.013133308
0.24308111
0.33313783
0.32635157
0.2566976
0.1317467
0.018853206
-0.021173776
-3.7933208
-3.0989842
-1.6476977
-0.83845549
-0.2686436
-0.010796185
0.10475941
0.1594802
0.18792802
0.18847917
0.1725032
0.15810807
0.14399047
0.12848377
0.11175584
0.095132055
0.079203754
0.062681229
0.043762905
0.022063183
-0.00073994606
-0.021838573
-0.038556109
-0.049187576
-0.053203668
-0.051051488
-0.043801011
-0.032794663
-0.019393599
-0.0047991484
0.0099873559
0.02423898
0.037416234
0.049213507
0.05941198
0.067839607
0.074591012
0.079021485
0.082286709
-3.5517234
-2.9841824
-1.6346489
-0.49367443
0.03033656
0.25944761
0.33873958
0.32799581
0.25885671
0.13625594
0.031007502
-0.013592608
-2.9867619
-1.7198143
-0.92774021
-0.34991846
-0.068744763
0.069672339
0.13942238
0.17708868
0.18262702
0.16919437
0.15226049
0.13965686
0.12453899
0.10791406
0.091699522
0.077012155
0.062736384
0.045842665
0.024681073
0.00032511654
-0.024112561
-0.045160885
-0.06024176
-0.068149438
-0.068934923
-0.063522049
-0.053293055
-0.039750181
-0.024303925
-0.0081360627
0.0078131933
0.022903675
0.036679211
0.04889495
0.059359874
0.067944308
0.074795346
0.079317699
0.082647811
-2.818381
-3.2686817
-2.7178187
-1.4912979
-0.41506791
0.066033429
0.27007992
0.34008772
0.32646379
0.25883759
0.13901358
0.041282375
-0.0061443964
-1.7620784
-0.98699856
-0.42492378
-0.13504029
0.026016751
0.1157627
0.16177035
0.17689107
0.16067359
0.14660896
0.13331284
0.11941602
0.10282624
0.086575316
0.073189585
0.061673342
0.0480017
0.028667607
0.0037058192
-0.023742779
-0.04935303
-0.069511059
-0.082132925
-0.086707704
-0.083905902
-0.075085698
-0.061875527
-0.04588055
-0.028519612
-0.010920826
0.0060682529
0.021907893
0.036207748
0.048759524
0.059408897
0.068117354
0.075073098
0.079729196
0.083073077
-1.7631283
-2.6098794
-2.9587815
-2.4457734
-1.3566074
-0.34277216
0.094496767
0.27605959
0.33790603
0.32212331
0.25667958
0.1397197
0.049785232
0.0019201458
-1.0157089
-0.49130683
-0.20619569
-0.029845973
0.082646897
0.14036557
0.16111162
0.15445954
0.13504318
0.12677061
0.1125733
0.096112126
0.079766325
0.067060844
0.05886766
0.049664976
0.033768598
0.0094823955
-0.020341595
-0.05058954
-0.07640521
-0.094603699
-0.10391147
-0.1046057
-0.097944216
-0.085643532
-0.069506927
-0.051188611
-0.032069555
-0.013180397
0.0047453808
0.021246257
0.035968378
0.048746876
0.059532707
0.068387915
0.075535534
0.080223643
0.083554891
-1.0148197
-1.7191462
-2.3713313
-2.6382433
-2.1770427
-1.2287078
-0.28203905
0.11624124
0.27797136
0.3323776
0.31534335
0.2524904
0.13864245
0.057058789
0.009246274
-0.54646086
-0.27404852
-0.095286314
0.040217477
0.10537049
0.13291488
0.13495719
0.12712503
0.11539508
0.10510055
0.087829509
0.070464987
0.05848787
0.053456854
0.050120686
0.03955773
0.01766049
-0.013589596
-0.048308904
-0.080292195
-0.10495501
-0.12002726
-0.12522056
-0.121589
-0.11089271
-0.095117867
-0.076172653
-0.055698811
-0.034979923
-0.014917554
0.0038435628
0.020871929
0.035875963
0.048816381
0.059785871
0.068967984
0.076101072
0.080782225
0.084097112
-0.5922544
-0.99559995
-1.6327874
-2.1172033
-2.3206487
-1.9180796
-1.1009921
-0.23350076
0.13149392
0.27618771
0.32446387
0.30744727
0.24568982
0.13660732
0.061814291
0.01530801
-0.33611645
-0.16299035
-0.0092664391
0.055894496
0.090155044
0.09651585
0.10615142
0.10825209
0.095061393
0.077895202
0.059498325
0.046087818
0.044917254
0.048500926
0.045452111
0.028089518
-0.003147325
-0.041972906
-0.080500794
-0.11252811
-0.13447983
-0.14529483
-0.14569496
-0.13741964
-0.12262179
-0.10346703
-0.081887599
-0.059433591
-0.037246243
-0.01612736
0.0033043547
0.020672297
0.03587078
0.049057221
0.060515089
0.069687819
0.076736547
0.081402159
0.084705163
-0.39289715
-0.62263139
-0.9604974
-1.5146065
-1.8624119
-2.0163984
-1.6732464
-0.97460651
-0.19666983
0.14132986
0.27205917
0.31690743
0.2971895
0.23758568
0.13422198
0.063660796
0.020548197
-0.2279004
-0.067906496
-0.0059751948
0.0314575
0.03911909
0.063186841
0.091860057
0.089161041
0.068114931
0.044902428
0.031289204
0.031407156
0.043877109
0.050764641
0.040519868
0.011136141
-0.031003119
-0.07635293
-0.11661788
-0.14664336
-0.16432442
-0.16989255
-0.16498593
-0.15189509
-0.13304966
-0.11068924
-0.086666291
-0.062377414
-0.038855058
-0.016882394
0.0029753559
0.020584821
0.036082648
0.050002658
0.061429626
0.070483217
0.077434051
0.082084179
0.085380812
-0.28477128
-0.43847078
-0.64049847
-0.90788902
-1.3768297
-1.6206934
-1.7326201
-1.4430095
-0.84855681
-0.16362423
0.14762014
0.2694956
0.30709378
0.28618973
0.22795039
0.13144869
0.063673808
0.023835914
-0.13373774
-0.070516419
-0.038046284
-0.034977543
-0.0063350092
0.058134954
0.078005417
0.061236072
0.033415426
0.0095672947
0.014261813
0.034504589
0.054362373
0.054583273
0.029403106
-0.01495445
-0.067114631
-0.11650103
-0.15585141
-0.18176529
-0.19377632
-0.19332081
-0.18279002
-0.164876
-0.14214824
-0.11678534
-0.090477025
-0.064504657
-0.039895809
-0.017382261
0.0027676754
0.02080549
0.037308817
0.051191741
0.06242865
0.071337483
0.078195924
0.082827704
0.086119349
-0.19749453
-0.33347618
-0.47423688
-0.64368732
-0.84159386
-1.224018
-1.3928422
-1.4729249
-1.2258513
-0.72441289
-0.12970371
0.15502007
0.26524939
0.29638416
0.27387173
0.21724219
0.12759705
0.063060722
0.025055126
-0.12854365
-0.11332398
-0.1190624
-0.098663919
-0.0003277039
0.056299408
0.051728466
0.022113101
-0.0074101925
-0.013392546
0.020911273
0.055154948
0.069303003
0.051678696
0.0066889168
-0.052174929
-0.11139296
-0.1614203
-0.19704802
-0.21691721
-0.22213186
-0.21513807
-0.1988872
-0.17629519
-0.14989695
-0.12170075
-0.093277254
-0.065924103
-0.040625575
-0.017743044
0.0029519058
0.022392483
0.038850088
0.052476147
0.063481847
0.07225609
0.079020809
0.083631953
0.086915843
-0.18128513
-0.25110448
-0.37204004
-0.49663493
-0.63417768
-0.76555745
-1.0733889
-1.1779786
-1.2306342
-1.0243266
-0.60324514
-0.095689171
0.16244162
0.25924115
0.28412157
0.2604116
0.20574531
0.123098
0.062346705
0.024837726
-0.19153119
-0.21578898
-0.21174003
-0.087640872
0.019718446
0.035410004
0.011018727
-0.030966247
-0.038562836
-0.0042335307
0.052378355
0.084488275
0.07744857
0.034224057
-0.030773954
-0.10063953
-0.16262282
-0.20959763
-0.23888084
-0.25112069
-0.24876203
-0.23501332
-0.21315451
-0.18610076
-0.15620986
-0.12536987
-0.095197645
-0.066962207
-0.041192239
-0.017599861
0.0049956057
0.024377761
0.040501029
0.053805959
0.064599402
0.073237125
0.079907766
0.084495569
0.087769132
-0.27120092
-0.23007311
-0.29481751
-0.39852124
-0.50523729
-0.61627221
-0.68525466
-0.92864011
-0.99184072
-0.99959374
-0.83038382
-0.49275494
-0.056898094
0.16688193
0.25110571
0.27050506
0.24588113
0.19354515
0.1179636
0.061270152
0.023614355
-0.3168953
-0.33506132
-0.20150402
-0.03708204
0.0097903832
-0.0040296963
-0.051439679
-0.084603572
-0.032461144
0.040609975
0.098066322
0.10728033
0.067655717
-0.0024844376
-0.083401628
-0.15886545
-0.21882416
-0.25924599
-0.28000405
-0.28349383
-0.27318516
-0.2527464
-0.22549645
-0.19416497
-0.16099055
-0.12794798
-0.096647996
-0.067805081
-0.041112943
-0.014996759
0.0075400917
0.026491013
0.042184077
0.055198505
0.065778303
0.074279947
0.080854968
0.085417039
0.088678073
-0.41451449
-0.34162158
-0.2702307
-0.32769175
-0.41659
-0.50390112
-0.5913512
-0.61504269
-0.79264658
-0.84613965
-0.79238025
-0.66842925
-0.37884293
-0.023049208
0.16834875
0.24125339
0.25558373
0.2305392
0.18089722
0.11221385
0.059750819
0.021668036
-0.46774861
-0.32875184
-0.11647014
-0.027588495
-0.026605901
-0.072350644
-0.13021382
-0.098015744
0.020323321
0.10778888
0.13829278
0.10791097
0.033085073
-0.059287034
-0.14935762
-0.22427598
-0.2776121
-0.30853302
-0.31919701
-0.31335248
-0.29509675
-0.26818343
-0.23573116
-0.20035124
-0.16442206
-0.12994487
-0.097860278
-0.067824933
-0.037827863
-0.01176991
0.010235299
0.028618558
0.043926559
0.05664948
0.067018223
0.075382391
0.08186054
0.086395158
0.089641258
-0.60317518
-0.50964026
-0.390631
-0.2949306
-0.34994619
-0.42558648
-0.49780944
-0.5631433
-0.56418048
-0.67765635
-0.73315032
-0.63910871
-0.5161385
-0.28041916
0.0069745605
0.16752398
0.22996677
0.23966891
0.21462036
0.16795668
0.10590504
0.057605042
0.019362962
-0.46671346
-0.22192957
-0.079379767
-0.05714331
-0.10030228
-0.17953731
-0.17578953
-0.04532749
0.10652688
0.1720217
0.15194999
0.076902245
-0.027686997
-0.13386837
-0.22531414
-0.2937185
-0.33651536
-0.35578775
-0.3555057
-0.34025358
-0.31426719
-0.28107449
-0.24367105
-0.20487416
-0.16713419
-0.13164747
-0.098029564
-0.063720838
-0.033771106
-0.0083624518
0.012918856
0.03080122
0.045722469
0.058159359
0.068316402
0.076542379
0.082923495
0.087430005
0.09065628
-0.61019695
-0.73692801
-0.5955015
-0.41991277
-0.30506426
-0.35881113
-0.42693513
-0.48803112
-0.53342372
-0.52148741
-0.58854343
-0.62895482
-0.5061861
-0.38696541
-0.19570095
0.030499359
0.16552755
0.21742774
0.22306322
0.1983787
0.15491031
0.099257118
0.05486004
0.01696239
-0.34015921
-0.14628687
-0.095881584
-0.13561325
-0.24085413
-0.27820001
-0.13262298
0.058522924
0.20254296
0.20511492
0.12638781
0.01206023
-0.11168153
-0.22194249
-0.30715085
-0.36389806
-0.39326754
-0.39969833
-0.38830586
-0.36387207
-0.33036384
-0.29116917
-0.24956719
-0.20850794
-0.16948007
-0.13203489
-0.092949084
-0.05866652
-0.029496636
-0.0049994736
0.015650012
0.033030718
0.047573594
0.059724954
0.069670388
0.077759706
0.08404596
0.088518339
0.091721452
-0.46124087
-0.74832513
-0.84970151
-0.66702394
-0.43771277
-0.30868469
-0.35368572
-0.41676266
-0.47114299
-0.5023614
-0.48608612
-0.51027876
-0.51843752
-0.39070979
-0.27906852
-0.12696516
0.046644902
0.16078447
0.20365021
0.20605912
0.18205946
0.14193461
0.09232053
0.051615049
0.0147269
-0.22457435
-0.14248525
-0.17810505
-0.30962069
-0.40281498
-0.25108034
-0.020465214
0.19303227
0.26371777
0.18887007
0.057851895
-0.082641182
-0.21341694
-0.31818594
-0.39053073
-0.43177239
-0.44608287
-0.43940535
-0.41715539
-0.38377861
-0.34306173
-0.2987619
-0.25436798
-0.21168575
-0.17017566
-0.12579872
-0.086703667
-0.053347723
-0.025309302
-0.0015980833
0.018417915
0.03531064
0.049476373
0.061343697
0.071080931
0.079040726
0.085221688
0.089657194
0.092834867
-0.30498654
-0.57482067
-0.86446106
-0.93099717
-0.7152385
-0.44427827
-0.30421166
-0.33713059
-0.39753542
-0.45132225
-0.47637208
-0.4387013
-0.45401845
-0.41681587
-0.29544641
-0.19144776
-0.074551205
0.05812344
0.15330203
0.18898276
0.18892128
0.16589421
0.12917093
0.085151237
0.04798403
0.012963904
-0.19396598
-0.22355641
-0.39172056
-0.53470143
-0.42250711
-0.14123657
0.14834438
0.30665877
0.25871807
0.11674127
-0.048208949
-0.20020603
-0.32613256
-0.41696484
-0.47141332
-0.49493302
-0.49379714
-0.47432558
-0.44151652
-0.39956405
-0.35270886
-0.30501224
-0.25860427
-0.21280404
-0.16257801
-0.11814219
-0.080135467
-0.048169968
-0.021095565
0.0018274042
0.02122905
0.037637064
0.051428309
0.063017877
0.072559974
0.080375666
0.086446812
0.090843733
0.093994709
-0.24815883
-0.37789808
-0.67073088
-0.94264892
-0.97073368
-0.73550369
-0.43745299
-0.29516587
-0.31497563
-0.37507914
-0.42798567
-0.44243518
-0.40854713
-0.39685383
-0.33290564
-0.2175374
-0.12559066
-0.036925056
0.067396809
0.14480036
0.17386816
0.17190052
0.15008274
0.11673822
0.077788451
0.044060565
0.011673867
-0.26499106
-0.48476193
-0.66596105
-0.62823587
-0.32117968
0.050738431
0.32230166
0.34804889
0.19100502
-0.002380104
-0.18288816
-0.33215252
-0.4426445
-0.51297556
-0.54657025
-0.55182385
-0.53566203
-0.50380468
-0.46089111
-0.41164521
-0.36072182
-0.31057158
-0.2602861
-0.20360976
-0.15326101
-0.11008957
-0.073776023
-0.042980663
-0.016873898
0.0052872523
0.024079558
0.040007748
0.053433804
0.064766701
0.074093239
0.081758895
0.08771797
0.092075641
0.095198845
-0.32200773
-0.2965422
-0.42804264
-0.72603094
-0.96856122
-0.96721678
-0.73075192
-0.42398058
-0.28495994
-0.29111851
-0.34669197
-0.3983415
-0.41649553
-0.3711091
-0.33856745
-0.26490106
-0.15701698
-0.080474376
-0.010659979
0.07350673
0.1354468
0.15862521
0.15522754
0.1347935
0.1047309
0.07025595
0.039692321
0.010538737
-0.56835305
-0.7871433
-0.81111953
-0.51456941
-0.087415389
0.30397741
0.41936551
0.30752132
0.066769615
-0.15730127
-0.33581478
-0.46943314
-0.55609901
-0.60191579
-0.61392657
-0.60151116
-0.57090737
-0.5272587
-0.47578745
-0.42175177
-0.36790248
-0.31298453
-0.24922691
-0.1923522
-0.1434554
-0.10233006
-0.067423264
-0.037803439
-0.012628862
0.0087778541
0.026967984
0.042429766
0.055521545
0.066569813
0.075673402
0.083186001
0.089033175
0.093350405
0.096444207
-0.59988308
-0.3879917
-0.32635915
-0.44739726
-0.72682381
-0.94028452
-0.92474714
-0.70533459
-0.40895184
-0.27376955
-0.26867094
-0.31519336
-0.37615678
-0.38356609
-0.32991472
-0.28416936
-0.20973789
-0.1142392
-0.051284132
0.0082693675
0.076577297
0.12545347
0.14353416
0.13910169
0.12016047
0.093213314
0.062689986
0.03500935
0.0092049289
-0.87889895
-0.95603737
-0.67351615
-0.20676476
0.25330933
0.47735667
0.41961992
0.19577223
-0.10094935
-0.33557878
-0.49593394
-0.60327528
-0.66081433
-0.68101216
-0.67233115
-0.64312309
-0.59887927
-0.54532301
-0.48831627
-0.43087542
-0.37123921
-0.29975589
-0.23571741
-0.18048902
-0.13404775
-0.09459909
-0.061107119
-0.032616052
-0.0083633487
0.01229897
0.029905037
0.044943331
0.057664028
0.06841764
0.077295167
0.084655393
0.090390487
0.094663866
0.097727198
-0.91090589
-0.57361799
-0.40909449
-0.33782357
-0.44136971
-0.67404352
-0.86655875
-0.84987908
-0.66514834
-0.39349612
-0.26290654
-0.25033337
-0.28880867
-0.34794232
-0.34726843
-0.29022266
-0.23467933
-0.16540698
-0.085470551
-0.030925253
0.022063976
0.076891422
0.1151192
0.12883088
0.1236878
0.10628741
0.082290878
0.055599513
0.030829874
0.00769057
-1.0366188
-0.79035554
-0.3191612
0.17955882
0.52000323
0.53192992
0.32989897
0.027464174
-0.29826533
-0.52375319
-0.65232092
-0.7262101
-0.75306468
-0.74885906
-0.72083833
-0.67596076
-0.62039584
-0.56057349
-0.49971004
-0.43534856
-0.3554994
-0.28365318
-0.22145434
-0.16915387
-0.12469452
-0.08693451
-0.054796448
-0.027420129
-0.0040756542
0.015865815
0.03294519
0.047512126
0.059849192
0.07030385
0.078957847
0.086166076
0.091784566
0.096009848
0.099046424
-1.0337468
-0.85768563
-0.51668357
-0.36353937
-0.32058601
-0.408093
-0.58340432
-0.76098048
-0.75138157
-0.60772503
-0.37033746
-0.24851766
-0.23542574
-0.26252189
-0.314298
-0.30741454
-0.25111858
-0.19208785
-0.12986119
-0.064783488
-0.015038463
0.031214386
0.074955699
0.10465741
0.11470774
0.1091154
0.093268696
0.072070263
0.048812053
0.027462215
0.0063424246
-0.84195718
-0.42950683
0.062220958
0.49785143
0.6443815
0.47107998
0.16815273
-0.18316319
-0.51016986
-0.70807477
-0.79537003
-0.83320067
-0.83111663
-0.80452668
-0.75874187
-0.70109566
-0.63860836
-0.57454776
-0.50554156
-0.41672064
-0.33643693
-0.26661
-0.20788023
-0.15790333
-0.11544352
-0.079293677
-0.048490859
-0.022211154
0.00025510743
0.019549954
0.036041773
0.050121441
0.062069522
0.072229026
0.080662145
0.08771116
0.093204528
0.097384976
0.10040511