/*--------------------------------*- C++ -*----------------------------------*\
| =========                 |                                                 |
| \\      /  F ield         | OpenFOAM: The Open Source CFD Toolbox           |
|  \\    /   O peration     | Version:  v2012                                 |
|   \\  /    A nd           | Website:  www.openfoam.com                      |
|    \\/     M anipulation  |                                                 |
\*---------------------------------------------------------------------------*/
FoamFile
{
    version     2.0;
    format      ascii;
    class       surfaceVectorField;
    location    "108.032925162963693";
    object      Uf;
}
// * * * * * * * * * * * * * * * * * * * * * * * * * * * * * * * * * * * * * //

dimensions      [0 1 -1 0 0 0 0];


internalField   nonuniform List<vector> 
18180
(
(2.6746566 -0.007582098 1.3961759e-22)
(2.6812647 -0.0026528863 -5.5724668e-23)
(2.6747913 -0.01593287 2.5583684e-22)
(2.6827555 -0.011682451 7.7957399e-22)
(2.6873209 -0.0072601577 6.0311768e-22)
(2.6880717 -0.0021925323 -1.0557008e-21)
(2.6746176 -0.025262513 -1.1085374e-22)
(2.6844065 -0.019717755 -1.3340709e-22)
(2.6900361 -0.015543892 3.8373296e-22)
(2.6910641 -0.010117887 5.5057146e-22)
(2.6928175 -0.005567929 -9.9674594e-22)
(2.6930885 -0.0011207986 -7.7536141e-22)
(2.6737368 -0.036297472 6.5671455e-22)
(2.6867075 -0.030649864 -1.7794782e-22)
(2.6937542 -0.025532263 -1.75972e-22)
(2.695126 -0.017534604 1.1979999e-21)
(2.6973116 -0.012175832 1.3884196e-21)
(2.6974354 -0.0067017375 -1.5404874e-21)
(2.6977191 -0.0027044666 -1.337939e-21)
(2.6954305 0.00047435497 1.2641686e-21)
(2.6716414 -0.049195317 -1.2798017e-22)
(2.6885282 -0.043480913 8.1558102e-22)
(2.6981865 -0.038148459 2.6587394e-23)
(2.7011947 -0.028261647 5.0630871e-22)
(2.7039847 -0.020736796 1.817383e-21)
(2.7039604 -0.012012837 2.7396111e-21)
(2.704151 -0.006551188 -1.7249384e-23)
(2.7010038 -0.0017755112 -2.0555944e-21)
(2.6990433 0.0010853951 4.0071136e-22)
(2.6945281 0.0022609382 2.7189893e-21)
(2.667824 -0.064109219 -1.2315695e-21)
(2.689613 -0.059259022 -1.4208269e-21)
(2.7025628 -0.053983654 -4.9220815e-22)
(2.7079842 -0.041708404 5.6204136e-22)
(2.7126539 -0.032248273 9.7320296e-22)
(2.7139064 -0.020621967 5.384371e-22)
(2.71405 -0.012287797 1.3934054e-21)
(2.7096589 -0.0037678519 1.324551e-21)
(2.7069455 0.00098444653 -5.8924034e-22)
(2.7011024 0.0042484889 -1.132168e-21)
(2.6968424 0.0052332695 1.0444028e-21)
(2.6903442 0.0040611853 1.667451e-21)
(2.6616986 -0.080933204 -3.5903644e-22)
(2.6890287 -0.078001568 -1.4555319e-21)
(2.7062209 -0.073586427 -1.5896094e-21)
(2.7153827 -0.059154226 -4.7485301e-21)
(2.722708 -0.047528341 -3.8528062e-21)
(2.7260383 -0.032201721 -6.5742235e-21)
(2.7274998 -0.020949428 -7.0887048e-21)
(2.7231148 -0.0086374065 2.8692363e-21)
(2.7193025 -0.00040993779 2.8236124e-21)
(2.7110092 0.0064858221 -4.8385074e-22)
(2.7055442 0.0098611004 -9.940889e-22)
(2.697155 0.010708811 4.4807131e-22)
(2.6909579 0.0094719447 1.0309611e-21)
(2.6830652 0.0057341178 -3.4367788e-21)
(2.6527227 -0.099397868 -1.7284831e-21)
(2.6860834 -0.099826351 -2.780262e-21)
(2.7082239 -0.097330958 -3.8516233e-21)
(2.7224253 -0.081096126 -2.6462963e-21)
(2.7336523 -0.067449025 -5.730968e-21)
(2.7405649 -0.048172997 -7.2030281e-21)
(2.7441645 -0.033467325 -9.8263087e-21)
(2.740277 -0.01618913 -6.5438631e-21)
(2.73665 -0.0041363773 2.8769348e-21)
(2.7269533 0.0068298036 1.3019488e-21)
(2.7192763 0.013601819 -1.8501936e-21)
(2.7076148 0.017587564 2.6043619e-21)
(2.6996435 0.018805678 4.0193805e-21)
(2.6894938 0.016922042 2.5520892e-21)
(2.6818998 0.013324881 -1.6679849e-21)
(2.6732221 0.0071247691 -3.2293856e-21)
(2.6403516 -0.11903092 -2.5427026e-21)
(2.6798496 -0.12463834 -4.2220373e-21)
(2.7075874 -0.12544076 -5.251903e-21)
(2.7283825 -0.10809585 -2.6284528e-21)
(2.7446686 -0.092823944 -1.6313306e-21)
(2.7567421 -0.069446624 1.0375607e-20)
(2.7639678 -0.050984016 9.1934237e-21)
(2.7618794 -0.027765026 3.5236251e-21)
(2.7589782 -0.010971764 6.7897138e-21)
(2.747795 0.0053581704 2.7497066e-21)
(2.7389 0.016226508 1.2553556e-21)
(2.724439 0.023923132 -1.5931559e-21)
(2.7133966 0.028034739 2.6255472e-21)
(2.6995294 0.028301281 -3.9449657e-21)
(2.6897918 0.026903622 -5.4470034e-21)
(2.6787753 0.022292756 1.60499e-21)
(2.6703955 0.0164577 1.749119e-22)
(2.6615352 0.0081721302 1.3685236e-21)
(2.6241303 -0.1391652 -1.9014102e-21)
(2.6694167 -0.15209565 -1.1238911e-20)
(2.7031523 -0.15794035 -1.2945353e-20)
(2.7321692 -0.14064662 -1.027197e-20)
(2.7548188 -0.12442431 -7.93484e-21)
(2.7740999 -0.09705336 3.0522214e-21)
(2.7865118 -0.074748594 1.4492081e-20)
(2.7876732 -0.044531528 1.0130961e-20)
(2.7868528 -0.021985912 4.8338816e-21)
(2.7748237 0.0012473048 5.990126e-21)
(2.7647122 0.01727386 2.1714665e-21)
(2.7467885 0.029744122 1.7735916e-21)
(2.7331221 0.037592525 -9.253719e-22)
(2.7155068 0.040517561 3.3966683e-21)
(2.7022356 0.041145027 -2.8019196e-21)
(2.6875203 0.037519015 -1.2445018e-20)
(2.6769041 0.033448247 -5.8346755e-21)
(2.6658788 0.026431129 4.2263232e-23)
(2.6573079 0.018714333 1.1737745e-21)
(2.6487591 0.0088665023 -4.1877121e-21)
(2.6036549 -0.15892334 -3.5165371e-21)
(2.6538064 -0.18165499 4.0552821e-21)
(2.6936474 -0.19460822 -4.7145687e-21)
(2.7325656 -0.17896784 5.101827e-21)
(2.7628372 -0.16291202 7.7869702e-21)
(2.7917324 -0.13218365 -9.5008627e-21)
(2.8113078 -0.10617633 9.2318426e-22)
(2.8178516 -0.067800965 -1.4926695e-20)
(2.8206572 -0.038520304 -1.9287317e-20)
(2.8084423 -0.0065459346 8.9712639e-21)
(2.7978135 0.016180416 1.0141775e-20)
(2.7761866 0.035076335 -2.2779289e-21)
(2.7592844 0.047586416 -2.7066074e-21)
(2.7368286 0.053669694 -3.1858601e-21)
(2.7199628 0.057019817 8.9764515e-22)
(2.7012074 0.054738807 5.0480795e-22)
(2.6870498 0.051660044 -8.55298e-21)
(2.6727458 0.044531103 1.9355857e-21)
(2.6620989 0.038072072 7.6262304e-21)
(2.6517496 0.029177296 3.6141609e-21)
(2.6434745 0.020056547 -1.4346533e-21)
(2.6355945 0.0092093683 -7.5804331e-21)
(2.5786351 -0.17727861 -2.0070354e-21)
(2.6320557 -0.21253802 3.8701299e-21)
(2.6777363 -0.23493243 1.1142444e-20)
(2.7280944 -0.22310107 2.2940516e-20)
(2.7671687 -0.20876624 3.2524756e-20)
(2.808473 -0.1758603 7.1857452e-22)
(2.8374569 -0.14679021 -1.5725149e-20)
(2.8522043 -0.099357534 -1.1976205e-21)
(2.8609181 -0.06224728 -1.5980231e-20)
(2.849711 -0.019038096 -1.6754338e-20)
(2.8393465 0.012154407 1.0061207e-20)
(2.8134674 0.039432179 4.712371e-21)
(2.7931475 0.058259931 -7.1242153e-21)
(2.7648451 0.068672322 1.1536331e-21)
(2.7433245 0.075233743 7.5125186e-22)
(2.7192997 0.074097885 -9.1823079e-21)
(2.7012299 0.072420318 -9.6685205e-21)
(2.6832057 0.065389235 -2.8932951e-21)
(2.6694063 0.05893715 7.1391747e-21)
(2.6564626 0.049062391 8.4800916e-21)
(2.646458 0.040723724 4.6760142e-21)
(2.6372429 0.030564884 2.8065248e-21)
(2.6296133 0.020549888 -2.9627273e-21)
(2.622625 0.0092344073 2.0691248e-21)
(2.5491619 -0.19327669 -4.3848477e-22)
(2.603711 -0.24384225 9.8022502e-22)
(2.654448 -0.27825068 6.5885405e-21)
(2.7174195 -0.2729274 -7.4582402e-21)
(2.766226 -0.262321 3.4769263e-21)
(2.8229214 -0.22915156 1.9281725e-20)
(2.8637783 -0.1981917 -1.0994709e-20)
(2.8903268 -0.14105075 -4.3266261e-21)
(2.9079534 -0.095276912 9.6167556e-21)
(2.8996163 -0.038025123 -6.8262099e-21)
(2.8908362 0.0040993559 -7.4377292e-21)
(2.860319 0.042650625 6.6411489e-21)
(2.8361544 0.069718624 1.52576e-21)
(2.8004879 0.085798825 -5.0700829e-21)
(2.7733151 0.096773781 2.803659e-21)
(2.7426899 0.097221387 1.9560997e-21)
(2.7194885 0.096839051 -7.4435206e-21)
(2.6966616 0.089092504 -6.7759074e-21)
(2.6792469 0.082771464 -3.1451178e-22)
(2.6633159 0.072039409 -1.1173601e-21)
(2.6508092 0.062918706 4.8123192e-23)
(2.6398001 0.051196566 -2.3948432e-21)
(2.6308851 0.041580724 -4.2630733e-21)
(2.623046 0.030754705 -2.0511891e-21)
(2.6162785 0.020326488 2.7270698e-21)
(2.6102893 0.0089980586 3.8724368e-21)
(2.5158577 -0.20610614 -1.5517889e-21)
(2.5689462 -0.27462507 -9.0257121e-22)
(2.6234263 -0.32376648 4.3557868e-22)
(2.6996494 -0.32808399 -1.3026528e-20)
(2.758745 -0.32387644 -2.6591499e-20)
(2.8339964 -0.29326477 -9.0600484e-21)
(2.8891221 -0.26223065 5.7790811e-21)
(2.9319839 -0.19526248 1.1925734e-20)
(2.9623618 -0.1401974 1.8424229e-20)
(2.9592618 -0.065427243 3.4054502e-20)
(2.9542368 -0.0093341982 1.8797279e-20)
(2.9184242 0.043895167 -2.492729e-21)
(2.8902407 0.082095087 1.0917632e-20)
(2.8453762 0.10595896 -3.0368675e-21)
(2.8110552 0.12274545 -9.3502548e-21)
(2.7719282 0.12499494 3.5925098e-21)
(2.7422435 0.12635909 2.7997868e-21)
(2.7134219 0.1176505 6.7985111e-21)
(2.6913125 0.11081392 7.6238643e-21)
(2.6716313 0.098021062 8.0078811e-21)
(2.6562164 0.088051592 7.3764195e-21)
(2.643132 0.074886015 -1.3131834e-21)
(2.6324798 0.063952618 -3.6602283e-21)
(2.6236422 0.051249996 -3.5900895e-21)
(2.6160514 0.040946613 -1.4887951e-21)
(2.609658 0.02997131 3.2330105e-22)
(2.6038557 0.019543145 1.3730548e-21)
(2.5988838 0.0085628921 9.7018143e-24)
(2.4797284 -0.21513671 7.756176e-21)
(2.5285526 -0.30384404 1.2322528e-20)
(2.5848668 -0.37019436 1.3119817e-20)
(2.6736133 -0.38791395 4.6165839e-20)
(2.7430969 -0.39297665 3.4008625e-20)
(2.8396158 -0.36869705 3.6287803e-21)
(2.9111988 -0.34051557 2.0594797e-20)
(2.9765794 -0.26487112 -2.917427e-21)
(3.0245424 -0.20051334 2.4762466e-21)
(3.0309398 -0.10411004 -3.7559444e-20)
(3.0325453 -0.030626212 -2.3676473e-20)
(2.9910145 0.042318388 1.9084113e-20)
(2.9583661 0.095332961 -1.0131522e-21)
(2.9013964 0.12980234 -1.2057069e-21)
(2.8581029 0.15455493 -1.459599e-20)
(2.8079679 0.15921062 -7.5277614e-21)
(2.7698603 0.16267701 4.9229151e-21)
(2.733409 0.15218495 4.1557905e-21)
(2.7053934 0.1445776 7.8792865e-21)
(2.6811793 0.12907204 6.0130662e-21)
(2.6620954 0.11725991 6.3551716e-21)
(2.6465325 0.10129399 1.0496187e-20)
(2.6338541 0.088904234 2.2888966e-21)
(2.623847 0.074506999 -1.125493e-21)
(2.6152797 0.062594821 -1.0245201e-21)
(2.6085992 0.049647904 -5.117829e-22)
(2.6023994 0.039168789 1.2127657e-21)
(2.5974016 0.028454792 3.4973105e-22)
(2.5925806 0.018354602 -9.5503583e-22)
(2.5885819 0.0079885277 -3.5420105e-22)
(2.4418297 -0.21965803 4.6783029e-21)
(2.4829502 -0.32992548 -9.4034344e-21)
(2.5387806 -0.41564711 -5.3018891e-21)
(2.6381412 -0.44978847 5.6180132e-21)
(2.7169346 -0.46785187 3.6730778e-20)
(2.8358203 -0.45450641 9.2428124e-20)
(2.9250311 -0.43228788 6.4376373e-20)
(3.0183722 -0.35138749 9.0506137e-20)
(3.0903503 -0.27887949 6.8858974e-20)
(3.1140444 -0.15737428 -5.2427263e-20)
(3.1270936 -0.062716547 -9.0967019e-20)
(3.0819807 0.036207192 -3.9342967e-20)
(3.0447076 0.10912729 1.0485032e-21)
(2.9721308 0.15817367 -4.7269942e-21)
(2.9170606 0.19385008 -4.8507003e-21)
(2.8519638 0.20164367 3.1294462e-21)
(2.8028503 0.20791054 1.0216541e-20)
(2.7566353 0.1948179 1.0373519e-21)
(2.7210461 0.18577953 3.1380833e-22)
(2.6913047 0.16616503 4.7263779e-21)
(2.6677596 0.15182751 2.9145034e-21)
(2.6493891 0.13230989 -7.8359941e-21)
(2.6342798 0.11733679 -4.1269036e-21)
(2.6230098 0.099913826 -2.8140826e-21)
(2.6132906 0.086277203 -6.120546e-21)
(2.6062292 0.071635754 6.1232404e-22)
(2.5997324 0.059455846 1.1257523e-21)
(2.5950346 0.046832158 -8.3814891e-22)
(2.5901767 0.036582905 -1.6845673e-21)
(2.5864509 0.026430045 -2.024336e-21)
(2.5825678 0.016899127 -1.4687288e-21)
(2.5794595 0.0073271999 -1.1468319e-21)
(2.4029637 -0.2191066 5.9405101e-21)
(2.4329362 -0.35116377 -9.6127703e-22)
(2.4851506 -0.45749384 -1.4493614e-20)
(2.5908444 -0.51003493 -6.8974136e-20)
(2.6771222 -0.54379551 -5.9551011e-20)
(2.8140957 -0.54478139 -1.0638795e-19)
(2.9204526 -0.53404415 -5.5500818e-20)
(3.0477981 -0.45123687 6.5787759e-21)
(3.1497821 -0.37448484 3.0571727e-20)
(3.1977114 -0.22593958 -1.7433155e-20)
(3.2306701 -0.10678299 -1.3324699e-19)
(3.1889017 0.024647347 -4.5862015e-20)
(3.149362 0.12321996 3.6747724e-21)
(3.0614751 0.19180074 -1.1080711e-20)
(2.9912787 0.2426458 -1.6617346e-20)
(2.9064559 0.25459769 1.6797672e-21)
(2.8422859 0.26470029 9.3327924e-21)
(2.7829959 0.24764129 1.9705826e-20)
(2.7376348 0.23645257 1.1260261e-20)
(2.701213 0.21118396 1.7624889e-21)
(2.6722034 0.19308163 6.0488581e-21)
(2.6506927 0.16852174 4.170454e-21)
(2.6328159 0.15016406 -5.9952307e-21)
(2.6203124 0.12907224 -9.9109334e-21)
(2.6093414 0.11261388 -8.7331975e-21)
(2.6020289 0.095078927 -5.7679921e-21)
(2.5951396 0.081161838 6.2800867e-22)
(2.5906846 0.067004142 1.5655418e-21)
(2.5860899 0.055105339 -2.9529395e-22)
(2.5831164 0.043205682 -9.9514269e-22)
(2.579481 0.033482486 -1.3071863e-21)
(2.5768667 0.024090917 -6.4265032e-22)
(2.5738409 0.015292091 -3.2610309e-22)
(2.5715195 0.0066217408 -4.2558429e-22)
(2.3638777 -0.21321037 1.5355222e-20)
(2.3794482 -0.36591179 1.296809e-20)
(2.4246325 -0.49315264 6.4122649e-21)
(2.5312391 -0.56473091 3.558954e-20)
(2.6212457 -0.61603846 -1.5370864e-20)
(2.7698501 -0.63306961 2.3373098e-20)
(2.8879478 -0.63524999 -1.9912144e-20)
(3.0395842 -0.55686723 -2.6617181e-19)
(3.177997 -0.4804719 -2.1014603e-19)
(3.2604541 -0.30383484 -9.0948485e-21)
(3.3211677 -0.16086766 -5.5121499e-20)
(3.2959494 0.0094385097 -8.5557692e-20)
(3.2609918 0.13952568 -2.0904325e-21)
(3.1635719 0.23331479 1.6460435e-21)
(3.0785383 0.30368614 -1.2191898e-20)
(2.9735664 0.32130711 -1.02073e-21)
(2.8893947 0.33660736 1.6535635e-20)
(2.8129927 0.31343679 4.2577038e-22)
(2.7544663 0.29906055 1.0138228e-20)
(2.709699 0.26576023 3.8648076e-21)
(2.6740602 0.24242854 -5.1621203e-21)
(2.6492051 0.21126708 -4.9775137e-22)
(2.6282246 0.18817722 -2.2990144e-21)
(2.614638 0.16212234 -2.8239745e-21)
(2.6024348 0.14213438 -6.4821501e-21)
(2.595123 0.12126817 -1.768128e-21)
(2.5879598 0.10464149 1.1457419e-21)
(2.5840133 0.087929536 -1.0104822e-21)
(2.5796256 0.074444771 -1.4700204e-22)
(2.5773495 0.061255599 2.9286767e-22)
(2.5744084 0.050025496 -3.626141e-22)
(2.5728715 0.039106449 -5.8006608e-23)
(2.570304 0.030107236 5.891991e-22)
(2.5686287 0.021594785 3.1862992e-22)
(2.5663604 0.013624729 2.332012e-22)
(2.5647148 0.0059052515 4.724038e-23)
(2.3252807 -0.2020053 -6.5919241e-21)
(2.3238272 -0.37385313 3.5765979e-21)
(2.3585232 -0.52070413 1.1608669e-21)
(2.4606354 -0.60926917 -4.3529793e-20)
(2.5495592 -0.67931117 -1.6321246e-20)
(2.6988968 -0.711489 7.7680652e-20)
(2.8218346 -0.72868595 1.1561877e-19)
(2.9925031 -0.65804788 1.599048e-19)
(3.1581979 -0.58510312 -7.1064637e-20)
(3.2641761 -0.38754724 1.3157611e-19)
(3.3628728 -0.21987261 3.2669836e-19)
(3.3751575 -0.0044161186 1.0755636e-20)
(3.3571359 0.1620736 -1.7204438e-20)
(3.25827 0.28529595 5.484334e-20)
(3.1637982 0.38035839 5.9219465e-20)
(3.0454033 0.40631884 -2.4906939e-20)
(2.9401161 0.42795868 -1.449027e-20)
(2.8464838 0.39625808 1.3671606e-20)
(2.7705775 0.37686012 -1.3570027e-21)
(2.7154914 0.33201225 -1.3766143e-20)
(2.6715706 0.30134059 -2.0039684e-20)
(2.6432211 0.26135955 -2.0435403e-20)
(2.6189316 0.23203292 -1.618489e-20)
(2.604657 0.19981728 -4.4980763e-21)
(2.5913641 0.17513154 -5.0258099e-21)
(2.5844741 0.1499471 3.8265552e-21)
(2.5772762 0.13009768 8.4439798e-21)
(2.5741904 0.11061582 1.8996415e-21)
(2.5702609 0.094736663 -1.3447562e-22)
(2.5690129 0.079423583 -1.3770072e-21)
(2.5667152 0.066845911 -9.7679225e-22)
(2.5661797 0.054910903 7.0792582e-22)
(2.5646164 0.044597601 1.0114242e-21)
(2.5642333 0.034801196 5.5105675e-22)
(2.5625684 0.026642871 2.939938e-22)
(2.5616636 0.019063397 5.2108073e-22)
(2.5600458 0.011965849 3.4801459e-22)
(2.5589659 0.0052018747 -4.4785885e-22)
(2.2874176 -0.18583247 -3.6357694e-20)
(2.2673973 -0.37412937 -2.9631798e-21)
(2.2886913 -0.53900223 6.8335728e-21)
(2.3814218 -0.64332825 7.2568278e-21)
(2.4641931 -0.72961871 -3.466524e-20)
(2.6031718 -0.77313152 -1.1976231e-19)
(2.7218667 -0.80547636 -3.2060057e-20)
(2.8946055 -0.74593604 3.5302234e-20)
(3.0826217 -0.68202306 7.7048845e-20)
(3.2151055 -0.46024078 -1.481486e-19)
(3.3416674 -0.27623309 4.2864511e-20)
(3.3815756 -0.014068309 2.8394433e-19)
(3.400774 0.19375442 -1.6089664e-20)
(3.3181835 0.35321064 -4.7580666e-20)
(3.2218757 0.47696282 2.0304649e-20)
(3.0989014 0.51145421 1.0071261e-19)
(2.9778423 0.54228649 2.1528889e-20)
(2.8751827 0.50039524 -2.2748698e-20)
(2.7811754 0.47355864 4.1012799e-21)
(2.7167545 0.41278239 -9.418704e-21)
(2.6626073 0.37150882 -2.140032e-20)
(2.6307098 0.31973956 -1.2121858e-20)
(2.602979 0.28214593 -1.2388558e-20)
(2.5886985 0.24219474 -1.4022196e-20)
(2.574704 0.21164051 -2.911842e-21)
(2.5688967 0.18139625 -3.1607134e-21)
(2.5620723 0.15744568 5.2581838e-21)
(2.5603672 0.13451287 6.8449774e-21)
(2.5572341 0.11594188 6.1786742e-22)
(2.5573787 0.098482547 -1.2656587e-21)
(2.556039 0.083915152 -2.4525503e-21)
(2.5568514 0.07030121 -1.0293932e-21)
(2.5562235 0.058910679 5.673158e-22)
(2.5570236 0.048366392 6.1332004e-22)
(2.5565677 0.03910743 1.7133574e-22)
(2.5570794 0.030490188 4.4321843e-22)
(2.5561556 0.023226813 6.5990798e-22)
(2.5558657 0.016586839 -5.4318216e-22)
(2.5547928 0.010364916 -1.3098011e-21)
(2.5541753 0.0045283026 -8.571728e-23)
(2.2498039 -0.16535262 -2.1008493e-20)
(2.2112335 -0.36737704 -2.7522488e-20)
(2.2172356 -0.54785561 4.4739875e-21)
(2.2970824 -0.6639926 1.5382247e-20)
(2.3685595 -0.76441977 1.6018507e-20)
(2.4868223 -0.81708873 7.6022892e-20)
(2.5940872 -0.86036416 -2.7198352e-21)
(2.7527789 -0.81206207 -1.8984557e-20)
(2.9455644 -0.75855776 4.6301697e-20)
(3.0828071 -0.51014525 1.3280171e-20)
(3.2399945 -0.30460932 -1.9993933e-19)
(3.2792065 -0.0043459287 -3.0701112e-19)
(3.3300274 0.23919579 -8.3236429e-20)
(3.2936535 0.44492439 -5.2037772e-20)
(3.2122906 0.59863306 -8.2214923e-20)
(3.1033072 0.64231366 -6.5597094e-20)
(2.9739921 0.68088297 9.4563384e-21)
(2.8780618 0.62652427 5.3371993e-20)
(2.7729507 0.59088422 1.1830484e-20)
(2.7066883 0.51059424 2.3117563e-20)
(2.6431776 0.45452978 1.0460266e-20)
(2.6093415 0.38733106 1.0974408e-20)
(2.5781676 0.3386712 2.0215465e-20)
(2.5648329 0.2891983 1.3276067e-20)
(2.5508192 0.25132479 1.2096217e-20)
(2.5470414 0.21509702 -2.4685869e-21)
(2.5412385 0.18630608 -2.6984987e-21)
(2.5416178 0.15958637 -3.6058461e-21)
(2.5397855 0.13773467 -2.2348163e-21)
(2.5418294 0.11769911 2.5741779e-21)
(2.541799 0.10103557 8.2139261e-22)
(2.5442835 0.085866523 -3.2832363e-21)
(2.544921 0.072905662 -1.9451854e-21)
(2.547236 0.061098542 4.2989977e-22)
(2.5478904 0.051029684 4.716403e-22)
(2.5496739 0.041908465 -5.2315941e-22)
(2.5500782 0.033759106 -2.7492076e-22)
(2.5512583 0.026316871 1.4399719e-21)
(2.5509268 0.019956066 3.0998181e-22)
(2.5511132 0.014228593 -1.1706983e-21)
(2.5504861 0.0088556627 -8.1279246e-24)
(2.5502375 0.0038957298 3.2543636e-22)
(2.2107749 -0.14161348 1.3542866e-20)
(2.1561734 -0.35442401 -1.7516641e-20)
(2.1463687 -0.54787502 -2.3592257e-20)
(2.2110608 -0.67147496 9.7253594e-21)
(2.2674573 -0.78286011 2.01275e-20)
(2.3567227 -0.84047872 2.495344e-20)
(2.4470775 -0.8922341 8.2500369e-20)
(2.579728 -0.8501221 2.676847e-20)
(2.7580502 -0.80645327 1.2669945e-20)
(2.8790641 -0.53422941 7.7224236e-20)
(3.0468943 -0.30310559 4.7336155e-20)
(3.0811085 0.034862869 1.6371172e-20)
(3.1385755 0.31616646 -8.2189299e-20)
(3.1185903 0.55270812 -9.8844841e-20)
(3.0769097 0.74380585 -6.941848e-20)
(3.0192329 0.80067217 -9.2127417e-20)
(2.897958 0.84179452 -7.6509395e-20)
(2.828909 0.77413165 -2.514638e-20)
(2.726413 0.72574904 1.5441858e-20)
(2.6707359 0.62409547 1.4657841e-20)
(2.6049018 0.54971869 2.5397726e-20)
(2.5748048 0.46456404 1.9986413e-20)
(2.5418197 0.40137908 2.0604454e-20)
(2.5310478 0.34029246 1.2742552e-20)
(2.517988 0.29340361 6.0757316e-21)
(2.5174851 0.25040529 1.5123693e-20)
(2.5136398 0.21593067 1.394989e-21)
(2.5170046 0.18500275 -9.8366566e-22)
(2.5171612 0.15951756 -1.8556693e-21)
(2.5217259 0.13686951 2.4715918e-22)
(2.5234961 0.11775762 4.8413837e-21)
(2.5280873 0.10078548 1.8119707e-21)
(2.5303035 0.086295352 -2.0666435e-21)
(2.5343929 0.073446705 -1.8459093e-21)
(2.5364738 0.062199289 4.0765097e-22)
(2.5398301 0.0521823 1.152508e-21)
(2.5414306 0.043468189 2.1336019e-22)
(2.5439032 0.035733791 -9.883934e-22)
(2.5449517 0.028691092 6.2451593e-22)
(2.5466082 0.022378631 8.0862408e-22)
(2.5467365 0.016895223 -5.8850412e-22)
(2.5472787 0.012030648 -3.9808916e-22)
(2.547008 0.0074597034 -8.686821e-23)
(2.547046 0.0033118261 -4.4814101e-22)
(2.1674716 -0.11610918 1.1272101e-20)
(2.1022568 -0.33662202 3.6738291e-20)
(2.0783852 -0.54030436 7.544865e-21)
(2.1266599 -0.66776553 -7.1723636e-20)
(2.1663988 -0.78617829 -4.0788101e-20)
(2.2223682 -0.84554262 1.2823241e-20)
(2.2916483 -0.90289739 1.7572538e-20)
(2.3899673 -0.86177685 1.6531757e-20)
(2.5382728 -0.82350077 -3.6721456e-20)
(2.6283482 -0.53059989 -4.2470783e-20)
(2.7880962 -0.27548564 1.8859106e-20)
(2.8114996 0.096464113 2.0081868e-20)
(2.8698315 0.41348061 -9.6362435e-21)
(2.8632718 0.67295383 -9.8026883e-20)
(2.8308551 0.89418285 -1.1440178e-19)
(2.8144753 0.96134567 -4.0168732e-20)
(2.7357903 1.0139954 -5.9985224e-20)
(2.7049536 0.93386962 -6.1943632e-20)
(2.6230403 0.86958683 -1.2727051e-20)
(2.5921874 0.74723508 3.8704155e-20)
(2.5358867 0.65210981 3.8280811e-20)
(2.5187982 0.54867821 5.6766345e-21)
(2.4895629 0.46848226 2.0297852e-22)
(2.4850296 0.39453688 -5.6634267e-21)
(2.4745806 0.33665969 -1.3479848e-20)
(2.4788569 0.28606752 -6.2920698e-21)
(2.4782127 0.24515716 2.0767976e-21)
(2.485679 0.20987898 5.6965265e-21)
(2.4887113 0.18039072 3.5209139e-21)
(2.4965236 0.15504189 3.9468956e-21)
(2.5007011 0.13341533 6.0208246e-21)
(2.5078847 0.11479398 5.15565e-21)
(2.5121011 0.098592223 2.3123254e-21)
(2.5183067 0.084573243 -5.0624774e-23)
(2.5220656 0.072290022 1.8643123e-22)
(2.5271836 0.061654303 -6.7468817e-22)
(2.5302674 0.052106322 1.9791696e-23)
(2.5342969 0.043788493 6.6239656e-22)
(2.5365628 0.036395583 -4.6931137e-22)
(2.5394852 0.029969266 1.3926957e-21)
(2.5409947 0.023991078 1.5779027e-21)
(2.5429683 0.018736934 -1.8343524e-22)
(2.5434414 0.014083645 4.4751021e-25)
(2.5442374 0.010018096 -7.068931e-22)
(2.5442442 0.0061896904 -1.0580844e-21)
(2.5444981 0.0027830552 -2.3929239e-21)
(2.1176557 -0.090679981 3.1808984e-21)
(2.0488199 -0.3159307 3.4616985e-20)
(2.015305 -0.52704133 5.9046663e-20)
(2.0471737 -0.65530228 3.8155203e-20)
(2.0704644 -0.7772759 -3.653841e-20)
(2.0933977 -0.83745138 -1.9060908e-20)
(2.1383553 -0.89556896 3.2082603e-20)
(2.1979332 -0.84875989 -2.2221878e-20)
(2.3055521 -0.81156578 -2.3738923e-20)
(2.355067 -0.50390694 1.8705019e-21)
(2.4928146 -0.22688017 -2.2261561e-21)
(2.4994888 0.17099695 -1.9355431e-19)
(2.551539 0.52079651 -1.9402924e-19)
(2.5541864 0.7992693 7.2059431e-20)
(2.5284653 1.0431523 -1.0960634e-20)
(2.540919 1.1124724 -1.5030163e-19)
(2.4966739 1.1730185 -7.8384708e-20)
(2.5039244 1.0856914 1.7307295e-20)
(2.4540652 1.0098069 1.7314354e-20)
(2.4578559 0.86879375 -9.0954904e-22)
(2.4249326 0.75326942 4.8015872e-20)
(2.4313621 0.63293707 3.3156553e-20)
(2.4149856 0.53524762 2.2792127e-21)
(2.4230396 0.44918884 1.493591e-21)
(2.4188754 0.37912889 -4.177184e-21)
(2.430051 0.32054022 -7.899913e-21)
(2.4341279 0.27243049 -1.0798018e-21)
(2.4469658 0.23279192 -7.3941323e-21)
(2.4539784 0.19915913 -4.0521741e-21)
(2.4658585 0.17132429 2.2970551e-21)
(2.4731575 0.14712815 2.6840565e-21)
(2.4834546 0.12695556 1.5265828e-21)
(2.4901453 0.10915833 6.6753058e-22)
(2.4988099 0.094223791 5.3124759e-21)
(2.5045786 0.080831543 3.092027e-21)
(2.5117093 0.069518771 7.3859829e-22)
(2.5164606 0.059341685 -6.2993655e-23)
(2.5221705 0.050741416 2.7450681e-22)
(2.5259062 0.042806887 8.8506232e-22)
(2.530322 0.036056919 -1.5083821e-21)
(2.5330252 0.029910598 2.4302059e-22)
(2.5362068 0.02468935 2.6507421e-21)
(2.5380256 0.019708582 9.9315923e-22)
(2.5401869 0.015425984 -2.9458388e-22)
(2.540907 0.011541565 -9.6727765e-22)
(2.5418714 0.0082031155 8.1304449e-22)
(2.5420878 0.0050523182 -4.2538178e-22)
(2.5424968 0.0023149962 -9.6501411e-22)
(2.0627393 -0.067097306 2.9434649e-21)
(1.995865 -0.29473499 6.8332027e-21)
(1.9585892 -0.51045361 3.6661202e-20)
(1.9752293 -0.63682658 9.3902442e-20)
(1.9833029 -0.75943778 7.4565681e-20)
(1.9761397 -0.81633726 -1.6235579e-19)
(1.9952698 -0.87344331 -1.4749432e-19)
(2.0144966 -0.81864904 6.6347373e-21)
(2.0774992 -0.77501403 -4.5164509e-20)
(2.0816336 -0.45689654 -2.74027e-20)
(2.1865494 -0.16325517 -4.4489425e-21)
(2.1738348 0.25343172 3.9500091e-20)
(2.2118977 0.63011282 -1.4080173e-19)
(2.2188993 0.92068017 -2.2213985e-19)
(2.1963141 1.1831911 2.9706414e-20)
(2.2299677 1.2503314 3.9071831e-20)
(2.2102985 1.3136855 -9.1579189e-20)
(2.2469734 1.21932 -8.4918807e-20)
(2.2301494 1.1354099 4.3865611e-21)
(2.2668839 0.97625169 4.0267886e-20)
(2.2667833 0.84277155 2.3305782e-20)
(2.3053036 0.70822356 8.5516171e-21)
(2.3122175 0.5945073 -5.5826515e-21)
(2.3401431 0.49876102 4.3259352e-21)
(2.3485486 0.4172243 3.4912512e-21)
(2.3700511 0.3515508 1.3365778e-20)
(2.380988 0.29587498 9.9637325e-21)
(2.4005296 0.25212978 -6.7670375e-21)
(2.4127891 0.2143613 -1.2833588e-20)
(2.429621 0.18441572 -1.4010451e-20)
(2.4408519 0.15784562 -8.1272133e-21)
(2.4547876 0.13650043 1.0200562e-21)
(2.4644649 0.11722819 -1.3009315e-22)
(2.4759206 0.10155333 -5.0689573e-21)
(2.4840345 0.087265795 -7.6287589e-22)
(2.4933961 0.075568616 5.9909054e-21)
(2.5000588 0.06475142 3.7990545e-21)
(2.5076222 0.055847219 -1.0745981e-21)
(2.5129493 0.047607344 -7.7499599e-22)
(2.5189273 0.040836697 -1.7954426e-21)
(2.5230415 0.034390854 -4.1081815e-21)
(2.5276243 0.029058918 -1.6411764e-21)
(2.5305833 0.024061206 6.2005994e-22)
(2.5338746 0.01992999 -3.6489082e-22)
(2.5358791 0.015865072 -1.6056139e-21)
(2.5381245 0.012459829 -2.5564506e-21)
(2.5390101 0.0092752258 -8.887656e-22)
(2.5400734 0.0065884322 -5.6971259e-22)
(2.5404413 0.0040491023 -1.0834503e-21)
(2.5409534 0.0019059549 4.5855491e-21)
(2.0055303 -0.046341755 -1.654559e-20)
(1.9449585 -0.27474069 -5.5328479e-20)
(1.9084437 -0.49283573 -5.2403288e-20)
(1.9123158 -0.61487392 2.0942607e-21)
(1.9069649 -0.73554984 5.5934024e-20)
(1.8735918 -0.78640864 1.4518947e-19)
(1.8678258 -0.83995333 -7.8379756e-20)
(1.8484133 -0.77385519 -1.5202571e-19)
(1.8678599 -0.72024178 -6.0477583e-21)
(1.8275684 -0.3957115 1.7437729e-19)
(1.8917267 -0.090111824 1.9297827e-19)
(1.8582662 0.33701965 -2.0073985e-19)
(1.8779964 0.73446215 -1.6238556e-19)
(1.8872197 1.0309478 -3.0630027e-20)
(1.8653182 1.3064725 -1.057562e-19)
(1.9135765 1.3683909 -8.4756016e-22)
(1.9126163 1.4308152 8.6510961e-21)
(1.9680508 1.3304021 -6.738046e-20)
(1.9774727 1.2395988 -6.1973011e-20)
(2.0363327 1.0624734 -1.4820399e-20)
(2.0677889 0.91204778 1.8913212e-20)
(2.1401027 0.76498148 2.5637955e-23)
(2.1787906 0.63806659 -1.3970652e-20)
(2.2331056 0.53616304 -6.0416624e-21)
(2.2613189 0.44560042 3.7107207e-21)
(2.2975467 0.37543769 3.1638005e-21)
(2.3187524 0.31310561 1.2415418e-20)
(2.3465404 0.2660294 8.9395001e-21)
(2.3653887 0.22437854 -7.0274214e-21)
(2.3880333 0.19297335 -7.7269659e-21)
(2.4040747 0.16440264 -8.7721045e-21)
(2.4221437 0.14236787 -8.0090041e-21)
(2.4353277 0.12196987 6.3985155e-22)
(2.4498599 0.10597211 -7.5574421e-22)
(2.4606467 0.09098143 -5.4482665e-21)
(2.4724206 0.079083406 -3.0088827e-21)
(2.4812095 0.067877472 3.3423634e-21)
(2.4907473 0.058960416 5.1068591e-21)
(2.4978347 0.050434147 5.0287349e-22)
(2.5054866 0.043637187 -1.969536e-21)
(2.5110811 0.037138241 -2.959306e-21)
(2.5170909 0.031986638 -3.1151677e-21)
(2.5213747 0.026887049 -7.5813513e-22)
(2.5259591 0.022818161 1.461084e-21)
(2.5290312 0.018859612 5.3608704e-22)
(2.5323171 0.015699556 -2.4679333e-21)
(2.5344084 0.012461885 -3.3816042e-21)
(2.5366564 0.0098378236 -2.0693386e-21)
(2.5376411 0.0072808441 -1.7831839e-21)
(2.5387478 0.0051702466 -5.747944e-22)
(2.5392172 0.0031730401 4.8084645e-21)
(2.5397894 0.0015485462 3.5392362e-21)
(1.9486234 -0.028862888 -1.3440315e-20)
(1.8961596 -0.25690275 -9.2508298e-20)
(1.8637601 -0.475745 -1.3023778e-19)
(1.8583009 -0.59149376 -4.6214185e-20)
(1.8422565 -0.70801842 5.4885588e-21)
(1.7870948 -0.75113639 -2.3050797e-20)
(1.7591134 -0.79888002 6.045047e-20)
(1.7060603 -0.71962901 3.2999077e-19)
(1.6857633 -0.65401511 2.6562904e-19)
(1.6064022 -0.32620452 -2.9920732e-20)
(1.6268895 -0.012450717 1.4074956e-19)
(1.5735371 0.41705032 2.3615654e-19)
(1.5723879 0.82800711 -1.3715968e-19)
(1.5834115 1.1242289 -1.6227815e-19)
(1.5623845 1.4075056 -3.6940311e-20)
(1.6196205 1.4637799 -1.6941066e-19)
(1.631989 1.5223467 -6.9860466e-20)
(1.6945408 1.4167614 -3.9641358e-21)
(1.7231434 1.3205986 -7.6221324e-20)
(1.7925342 1.126359 -5.5063655e-20)
(1.8455966 0.95849124 -1.0281019e-20)
(1.9447675 0.79744195 1.6522471e-20)
(2.0168356 0.65897821 -1.4197864e-21)
(2.1021876 0.55448254 -5.0679372e-21)
(2.1566747 0.45846209 2.6470819e-21)
(2.211741 0.38737107 -5.7975059e-21)
(2.2475493 0.3209162 -6.4485735e-21)
(2.2855806 0.27234027 6.7012036e-21)
(2.3125699 0.22758082 3.2442767e-21)
(2.3417414 0.19555113 -5.6707231e-22)
(2.3634566 0.1656014 -1.2615571e-21)
(2.3860898 0.14360326 -3.3800113e-21)
(2.4032749 0.12255291 -2.5814288e-21)
(2.4210897 0.10668752 7.600918e-21)
(2.4348347 0.091378128 6.3741118e-21)
(2.4491327 0.079661522 -1.1587989e-20)
(2.4602289 0.06826508 -9.3810619e-21)
(2.4718162 0.059490742 5.1726276e-21)
(2.4807846 0.050929578 6.8714831e-21)
(2.4901618 0.044374576 1.5042283e-21)
(2.4973464 0.037851487 -8.268051e-22)
(2.5048496 0.032878856 -1.0693136e-21)
(2.5104865 0.027920119 -1.1910223e-21)
(2.5163578 0.024184299 -1.7564785e-21)
(2.5206534 0.020283788 3.3869987e-22)
(2.5251166 0.017325845 1.9067544e-21)
(2.5281919 0.014293414 -9.2632324e-22)
(2.5313849 0.011987274 -1.2766476e-21)
(2.5334851 0.0094863356 -2.9168209e-24)
(2.535673 0.0075490104 1.8199795e-21)
(2.5367034 0.0055475792 3.0161437e-21)
(2.5378088 0.0039404501 8.2358644e-22)
(2.5383384 0.0024157337 -4.3583238e-22)
(2.5389366 0.001234624 -1.3050307e-21)
(1.8953682 -0.014657211 2.3297103e-20)
(1.8509314 -0.24172847 2.3176847e-20)
(1.8237449 -0.46027315 -5.1247645e-20)
(1.8122704 -0.56834213 6.2519806e-20)
(1.7891111 -0.67890594 1.4456382e-19)
(1.7167279 -0.71326399 -1.8062573e-19)
(1.6700563 -0.75367736 -2.1012375e-19)
(1.5899131 -0.66064892 -1.4139246e-20)