/*--------------------------------*- C++ -*----------------------------------*\
| =========                 |                                                 |
| \\      /  F ield         | OpenFOAM: The Open Source CFD Toolbox           |
|  \\    /   O peration     | Version:  v2012                                 |
|   \\  /    A nd           | Website:  www.openfoam.com                      |
|    \\/     M anipulation  |                                                 |
\*---------------------------------------------------------------------------*/
FoamFile
{
    version     2.0;
    format      ascii;
    class       volVectorField;
    location    "97.0873433266573755";
    object      cellDisplacement;
}
// * * * * * * * * * * * * * * * * * * * * * * * * * * * * * * * * * * * * * //

dimensions      [0 1 0 0 0 0 0];


internalField   nonuniform List<vector> 
9200
(
(-0.026899772 0 0)
(-0.026976457 0 0)
(-0.077923792 0 0)
(-0.027191615 0 0)
(-0.078281886 0 0)
(-0.12561262 0 0)
(-0.027470465 0 0)
(-0.078868668 0 0)
(-0.12608324 0 0)
(-0.16978032 0 0)
(-0.027778909 0 0)
(-0.079578989 0 0)
(-0.12687966 0 0)
(-0.17039968 0 0)
(-0.21079684 0 0)
(-0.028111743 0 0)
(-0.080432873 0 0)
(-0.12802437 0 0)
(-0.17153723 0 0)
(-0.21154566 0 0)
(-0.24860578 0 0)
(-0.028446694 0 0)
(-0.081335397 0 0)
(-0.12930276 0 0)
(-0.17293182 0 0)
(-0.21280364 0 0)
(-0.24947943 0 0)
(-0.28354116 0 0)
(-0.028782708 0 0)
(-0.082270579 0 0)
(-0.13070797 0 0)
(-0.17461229 0 0)
(-0.21453668 0 0)
(-0.25101633 0 0)
(-0.28451558 0 0)
(-0.31559326 0 0)
(-0.029104845 0 0)
(-0.083200137 0 0)
(-0.13215573 0 0)
(-0.17642992 0 0)
(-0.21653193 0 0)
(-0.25295243 0 0)
(-0.28615709 0 0)
(-0.31667287 0 0)
(-0.34508923 0 0)
(-0.029416153 0 0)
(-0.08410782 0 0)
(-0.13360593 0 0)
(-0.17832095 0 0)
(-0.21870088 0 0)
(-0.25520647 0 0)
(-0.28833135 0 0)
(-0.31853134 0 0)
(-0.34623902 0 0)
(-0.37204989 0 0)
(-0.029705808 0 0)
(-0.084978133 0 0)
(-0.13503194 0 0)
(-0.18022594 0 0)
(-0.22097017 0 0)
(-0.25768327 0 0)
(-0.29082921 0 0)
(-0.3208581 0 0)
(-0.34817681 0 0)
(-0.37329021 0 0)
(-0.39678919 0 0)
(-0.029979958 0 0)
(-0.085803975 0 0)
(-0.13640126 0 0)
(-0.18209716 0 0)
(-0.22326509 0 0)
(-0.26027865 0 0)
(-0.29356467 0 0)
(-0.32357035 0 0)
(-0.3507155 0 0)
(-0.37540533 0 0)
(-0.39807803 0 0)
(-0.41933234 0 0)
(-0.030230132 0 0)
(-0.086577354 0 0)
(-0.1377121 0 0)
(-0.18391387 0 0)
(-0.22553295 0 0)
(-0.26291001 0 0)
(-0.29642759 0 0)
(-0.32650968 0 0)
(-0.35359749 0 0)
(-0.37805799 0 0)
(-0.40025242 0 0)
(-0.42069589 0 0)
(-0.43996597 0 0)
(-0.030463514 0 0)
(-0.087299252 0 0)
(-0.13894277 0 0)
(-0.18564392 0 0)
(-0.22773739 0 0)
(-0.26552615 0 0)
(-0.29935352 0 0)
(-0.32962257 0 0)
(-0.3567514 0 0)
(-0.38112106 0 0)
(-0.40308183 0 0)
(-0.42300977 0 0)
(-0.4413585 0 0)
(-0.45872116 0 0)
(-0.030675005 0 0)
(-0.087965993 0 0)
(-0.14010061 0 0)
(-0.18728798 0 0)
(-0.2298517 0 0)
(-0.26807237 0 0)
(-0.30226653 0 0)
(-0.33280111 0 0)
(-0.36006546 0 0)
(-0.38444186 0 0)
(-0.40628866 0 0)
(-0.42592352 0 0)
(-0.4437139 0 0)
(-0.46017466 0 0)
(-0.47585361 0 0)
(-0.030869631 0 0)
(-0.088580826 0 0)
(-0.14117221 0 0)
(-0.18882374 0 0)
(-0.23185744 0 0)
(-0.27052846 0 0)
(-0.30511471 0 0)
(-0.33597227 0 0)
(-0.36345619 0 0)
(-0.38792456 0 0)
(-0.40976161 0 0)
(-0.42927415 0 0)
(-0.44676969 0 0)
(-0.4626357 0 0)
(-0.47732158 0 0)
(-0.49139034 0 0)
(-0.031045207 0 0)
(-0.089142415 0 0)
(-0.14216802 0 0)
(-0.19026269 0 0)
(-0.23374698 0 0)
(-0.27286061 0 0)
(-0.30786456 0 0)
(-0.33908661 0 0)
(-0.36685626 0 0)
(-0.39151707 0 0)
(-0.41343177 0 0)
(-0.43290662 0 0)
(-0.45024005 0 0)
(-0.46574841 0 0)
(-0.47980568 0 0)
(-0.4929055 0 0)
(-0.50555486 0 0)
(-0.031204702 0 0)
(-0.089655272 0 0)
(-0.14308007 0 0)
(-0.19158858 0 0)
(-0.23551001 0 0)
(-0.27506896 0 0)
(-0.3104866 0 0)
(-0.34209112 0 0)
(-0.37019751 0 0)
(-0.39511 0 0)
(-0.41716324 0 0)
(-0.43668734 0 0)
(-0.45398623 0 0)
(-0.46932506 0 0)
(-0.48302602 0 0)
(-0.49546369 0 0)
(-0.50707107 0 0)
(-0.51837367 0 0)
(-0.031348891 0 0)
(-0.090121691 0 0)
(-0.14391878 0 0)
(-0.19281776 0 0)
(-0.23715132 0 0)
(-0.27713278 0 0)
(-0.3129683 0 0)
(-0.34497031 0 0)
(-0.37343248 0 0)
(-0.39864429 0 0)
(-0.42091783 0 0)
(-0.44057677 0 0)
(-0.4579198 0 0)
(-0.47318976 0 0)
(-0.48668144 0 0)
(-0.49871087 0 0)
(-0.50963628 0 0)
(-0.51992399 0 0)
(-0.53003813 0 0)
(-0.0314779 0 0)
(-0.090543238 0 0)
(-0.14467938 0 0)
(-0.19393945 0 0)
(-0.23866441 0 0)
(-0.27906237 0 0)
(-0.31529756 0 0)
(-0.34769026 0 0)
(-0.37653167 0 0)
(-0.40207923 0 0)
(-0.42461931 0 0)
(-0.44446547 0 0)
(-0.46191236 0 0)
(-0.47721099 0 0)
(-0.49063016 0 0)
(-0.50243772 0 0)
(-0.51295717 0 0)
(-0.52253652 0 0)
(-0.53158004 0 0)
(-0.54057074 0 0)
(-0.031594457 0 0)
(-0.090926261 0 0)
(-0.14537288 0 0)
(-0.19496954 0 0)
(-0.24005919 0 0)
(-0.28084299 0 0)
(-0.31747135 0 0)
(-0.35025622 0 0)
(-0.37947085 0 0)
(-0.40536337 0 0)
(-0.42820843 0 0)
(-0.44829248 0 0)
(-0.46589757 0 0)
(-0.48130578 0 0)
(-0.49475694 0 0)
(-0.50646353 0 0)
(-0.51673035 0 0)
(-0.52585979 0 0)
(-0.53418489 0 0)
(-0.54213599 0 0)
(-0.55013409 0 0)
(-0.031697022 0 0)
(-0.091268971 0 0)
(-0.1459953 0 0)
(-0.19590182 0 0)
(-0.24133195 0 0)
(-0.28249144 0 0)
(-0.31948842 0 0)
(-0.35264505 0 0)
(-0.38223941 0 0)
(-0.40849366 0 0)
(-0.43165867 0 0)
(-0.45201355 0 0)
(-0.4698329 0 0)
(-0.48539172 0 0)
(-0.49892737 0 0)
(-0.51064295 0 0)
(-0.52080062 0 0)
(-0.52966888 0 0)
(-0.53755319 0 0)
(-0.54476487 0 0)
(-0.55168344 0 0)
(-0.55874929 0 0)
(-0.031789181 0 0)
(-0.09157872 0 0)
(-0.14655791 0 0)
(-0.1967506 0 0)
(-0.24249524 0 0)
(-0.28399702 0 0)
(-0.32134849 0 0)
(-0.35487253 0 0)
(-0.38483044 0 0)
(-0.4114351 0 0)
(-0.43493299 0 0)
(-0.45559099 0 0)
(-0.47366004 0 0)
(-0.48940224 0 0)
(-0.50307325 0 0)
(-0.51488918 0 0)
(-0.5250483 0 0)
(-0.53377605 0 0)
(-0.54137493 0 0)
(-0.54811425 0 0)
(-0.55429411 0 0)
(-0.56031232 0 0)
(-0.56655176 0 0)
(-0.031868878 0 0)
(-0.09185289 0 0)
(-0.14705871 0 0)
(-0.19751388 0 0)
(-0.24354854 0 0)
(-0.2853782 0 0)
(-0.32305799 0 0)
(-0.35692176 0 0)
(-0.3872397 0 0)
(-0.41420124 0 0)
(-0.43802998 0 0)
(-0.45899188 0 0)
(-0.47733366 0 0)
(-0.49330482 0 0)
(-0.5071431 0 0)
(-0.51908667 0 0)
(-0.52932572 0 0)
(-0.53803796 0 0)
(-0.54549371 0 0)
(-0.55194304 0 0)
(-0.55766352 0 0)
(-0.5629301 0 0)
(-0.5680948 0 0)
(-0.57355982 0 0)
(-0.031940144 0 0)
(-0.092099887 0 0)
(-0.14750769 0 0)
(-0.19820272 0 0)
(-0.24450238 0 0)
(-0.2866261 0 0)
(-0.32461716 0 0)
(-0.35881385 0 0)
(-0.38947142 0 0)
(-0.41676921 0 0)
(-0.44092652 0 0)
(-0.46220769 0 0)
(-0.48083974 0 0)
(-0.49705428 0 0)
(-0.51109634 0 0)
(-0.52319588 0 0)
(-0.53355411 0 0)
(-0.54235228 0 0)
(-0.54978034 0 0)
(-0.55606404 0 0)
(-0.56148116 0 0)
(-0.56626571 0 0)
(-0.57068683 0 0)
(-0.57511014 0 0)
(-0.57988592 0 0)
(-0.032000832 0 0)
(-0.092316192 0 0)
(-0.14790342 0 0)
(-0.19881845 0 0)
(-0.24536016 0 0)
(-0.28776082 0 0)
(-0.32603731 0 0)
(-0.36053596 0 0)
(-0.39152308 0 0)
(-0.41915776 0 0)
(-0.44363447 0 0)
(-0.46522292 0 0)
(-0.48414566 0 0)
(-0.5006321 0 0)
(-0.51490528 0 0)
(-0.52718386 0 0)
(-0.53768591 0 0)
(-0.54660217 0 0)
(-0.55408942 0 0)
(-0.56032986 0 0)
(-0.56558344 0 0)
(-0.5700669 0 0)
(-0.57402444 0 0)
(-0.57769632 0 0)
(-0.58141422 0 0)
(-0.58554732 0 0)
(-0.032055403 0 0)
(-0.092509678 0 0)
(-0.1482545 0 0)
(-0.19936858 0 0)
(-0.24612925 0 0)
(-0.28877439 0 0)
(-0.32731735 0 0)
(-0.3621102 0 0)
(-0.39340498 0 0)
(-0.4213518 0 0)
(-0.44613821 0 0)
(-0.46803823 0 0)
(-0.48726066 0 0)
(-0.50401141 0 0)
(-0.51852758 0 0)
(-0.53101883 0 0)
(-0.54167943 0 0)
(-0.55072582 0 0)
(-0.55832768 0 0)
(-0.56463718 0 0)
(-0.56983807 0 0)
(-0.57414321 0 0)
(-0.57779452 0 0)
(-0.58099056 0 0)
(-0.58397131 0 0)
(-0.58707754 0 0)
(-0.59063559 0 0)
(-0.032101084 0 0)
(-0.092677131 0 0)
(-0.14856091 0 0)
(-0.19985606 0 0)
(-0.24681447 0 0)
(-0.28968666 0 0)
(-0.32847211 0 0)
(-0.36352729 0 0)
(-0.39511535 0 0)
(-0.4233715 0 0)
(-0.44845511 0 0)
(-0.47065022 0 0)
(-0.49016049 0 0)
(-0.50719223 0 0)
(-0.52196473 0 0)
(-0.53467502 0 0)
(-0.54552368 0 0)
(-0.55471793 0 0)
(-0.56244377 0 0)
(-0.56885801 0 0)
(-0.57410163 0 0)
(-0.57834824 0 0)
(-0.58183136 0 0)
(-0.58472835 0 0)
(-0.58725425 0 0)
(-0.58962163 0 0)
(-0.5921442 0 0)
(-0.59516635 0 0)
(-0.032142985 0 0)
(-0.092826011 0 0)
(-0.14882912 0 0)
(-0.20028566 0 0)
(-0.24742114 0 0)
(-0.29049192 0 0)
(-0.32950031 0 0)
(-0.36480919 0 0)
(-0.39666823 0 0)
(-0.42520714 0 0)
(-0.45057456 0 0)
(-0.47306237 0 0)
(-0.49286539 0 0)
(-0.51016269 0 0)
(-0.52518665 0 0)
(-0.53814062 0 0)
(-0.54919575 0 0)
(-0.55854707 0 0)
(-0.56640337 0 0)
(-0.57293816 0 0)
(-0.57827931 0 0)
(-0.58257679 0 0)
(-0.58599562 0 0)
(-0.58872029 0 0)
(-0.59095051 0 0)
(-0.59285734 0 0)
(-0.59465849 0 0)
(-0.59667435 0 0)
(-0.59921407 0 0)
(-0.032177642 0 0)
(-0.092951974 0 0)
(-0.14906012 0 0)
(-0.2006616 0 0)
(-0.24795514 0 0)
(-0.29120757 0 0)
(-0.33041754 0 0)
(-0.36594931 0 0)
(-0.39806283 0 0)
(-0.42687862 0 0)
(-0.45251583 0 0)
(-0.47527905 0 0)
(-0.49535723 0 0)
(-0.51292723 0 0)
(-0.52821106 0 0)
(-0.54139615 0 0)
(-0.55266575 0 0)
(-0.56220467 0 0)
(-0.57020094 0 0)
(-0.57685688 0 0)
(-0.58231753 0 0)
(-0.58670456 0 0)
(-0.59015314 0 0)
(-0.5928156 0 0)
(-0.59488872 0 0)
(-0.5965119 0 0)
(-0.59787568 0 0)
(-0.59917147 0 0)
(-0.60070215 0 0)
(-0.60279392 0 0)
(-0.032074123 0 0)
(-0.093061003 0 0)
(-0.14925716 0 0)
(-0.20098527 0 0)
(-0.24841941 0 0)
(-0.29182877 0 0)
(-0.33122138 0 0)
(-0.36696752 0 0)
(-0.39931392 0 0)
(-0.42837996 0 0)
(-0.45427206 0 0)
(-0.47730315 0 0)
(-0.49765933 0 0)
(-0.5154852 0 0)
(-0.53101445 0 0)
(-0.54444702 0 0)
(-0.55594075 0 0)
(-0.56566817 0 0)
(-0.57382892 0 0)
(-0.58062059 0 0)
(-0.58619351 0 0)
(-0.59068181 0 0)
(-0.59420924 0 0)
(-0.59691293 0 0)
(-0.59892346 0 0)
(-0.60039369 0 0)
(-0.60148262 0 0)
(-0.60234171 0 0)
(-0.60317174 0 0)
(-0.60427937 0 0)
(-0.60596529 0 0)
(-0.031939761 0 0)
(-0.092851887 0 0)
(-0.14942161 0 0)
(-0.20126313 0 0)
(-0.24882045 0 0)
(-0.29237027 0 0)
(-0.33192732 0 0)
(-0.36786004 0 0)
(-0.40042273 0 0)
(-0.42973045 0 0)
(-0.45586267 0 0)
(-0.47914452 0 0)
(-0.49975852 0 0)
(-0.51784144 0 0)
(-0.53362313 0 0)
(-0.54728554 0 0)
(-0.55899644 0 0)
(-0.56893247 0 0)
(-0.57727073 0 0)
(-0.58419636 0 0)
(-0.58988461 0 0)
(-0.59448585 0 0)
(-0.5981147 0 0)
(-0.60089154 0 0)
(-0.60293015 0 0)
(-0.60434826 0 0)
(-0.60530464 0 0)
(-0.6059036 0 0)
(-0.60631963 0 0)
(-0.60673153 0 0)
(-0.60743379 0 0)
(-0.60874252 0 0)
(-0.031818721 0 0)
(-0.092448613 0 0)
(-0.14911306 0 0)
(-0.20149016 0 0)
(-0.24915706 0 0)
(-0.29282953 0 0)
(-0.33253334 0 0)
(-0.3686434 0 0)
(-0.40140283 0 0)
(-0.43092663 0 0)
(-0.45728457 0 0)
(-0.48080574 0 0)
(-0.50167764 0 0)
(-0.52000206 0 0)
(-0.53601673 0 0)
(-0.54991897 0 0)
(-0.56185471 0 0)
(-0.571985 0 0)
(-0.58050151 0 0)
(-0.58758692 0 0)
(-0.59341066 0 0)
(-0.59812421 0 0)
(-0.60184639 0 0)
(-0.60470733 0 0)
(-0.60681462 0 0)
(-0.60827681 0 0)
(-0.60918655 0 0)
(-0.60966543 0 0)
(-0.60983454 0 0)
(-0.60983643 0 0)
(-0.60986192 0 0)
(-0.61020827 0 0)
(-0.61117288 0 0)
(-0.03170908 0 0)
(-0.092077963 0 0)
(-0.14845854 0 0)
(-0.20110887 0 0)
(-0.24943529 0 0)
(-0.29321457 0 0)
(-0.33305152 0 0)
(-0.36931612 0 0)
(-0.40225642 0 0)
(-0.43198644 0 0)
(-0.45855531 0 0)
(-0.48230007 0 0)
(-0.50341039 0 0)
(-0.52197032 0 0)
(-0.53822397 0 0)
(-0.55234826 0 0)
(-0.56449462 0 0)
(-0.57483227 0 0)
(-0.58353751 0 0)
(-0.59078254 0 0)
(-0.59673991 0 0)
(-0.60156661 0 0)
(-0.60539059 0 0)
(-0.60834259 0 0)
(-0.6105337 0 0)
(-0.61206388 0 0)
(-0.61301308 0 0)
(-0.61346256 0 0)
(-0.61353556 0 0)
(-0.61330712 0 0)
(-0.61294457 0 0)
(-0.61262009 0 0)
(-0.61262506 0 0)
(-0.61327076 0 0)
(-0.031614996 0 0)
(-0.091749363 0 0)
(-0.1478594 0 0)
(-0.20024371 0 0)
(-0.2489786 0 0)
(-0.2935242 0 0)
(-0.33348243 0 0)
(-0.36988956 0 0)
(-0.40299521 0 0)
(-0.43291015 0 0)
(-0.45967508 0 0)
(-0.48363105 0 0)
(-0.50497515 0 0)
(-0.52375706 0 0)
(-0.54022836 0 0)
(-0.55457949 0 0)
(-0.56694358 0 0)
(-0.57747183 0 0)
(-0.58635448 0 0)
(-0.59376893 0 0)
(-0.59987127 0 0)
(-0.60481316 0 0)
(-0.60874785 0 0)
(-0.61179926 0 0)
(-0.61406681 0 0)
(-0.61567117 0 0)
(-0.61669102 0 0)
(-0.61720048 0 0)
(-0.61725551 0 0)
(-0.61694948 0 0)
(-0.61637149 0 0)
(-0.61566563 0 0)
(-0.61501787 0 0)
(-0.61472003 0 0)
(-0.61507293 0 0)
(-0.031534603 0 0)
(-0.091461466 0 0)
(-0.14732609 0 0)
(-0.19945432 0 0)
(-0.24792793 0 0)
(-0.29299944 0 0)
(-0.33382929 0 0)
(-0.37036757 0 0)
(-0.40362348 0 0)
(-0.43371142 0 0)
(-0.46065839 0 0)
(-0.48481135 0 0)
(-0.50637292 0 0)
(-0.52536605 0 0)
(-0.54205801 0 0)
(-0.55661982 0 0)
(-0.56918439 0 0)
(-0.57990979 0 0)
(-0.58897868 0 0)
(-0.59655629 0 0)
(-0.60280166 0 0)
(-0.60786682 0 0)
(-0.61190478 0 0)
(-0.61504807 0 0)
(-0.61740039 0 0)
(-0.61908098 0 0)
(-0.62018142 0 0)
(-0.62076818 0 0)
(-0.62088674 0 0)
(-0.62058599 0 0)
(-0.61995737 0 0)
(-0.61905286 0 0)
(-0.61804271 0 0)
(-0.61709968 0 0)
(-0.6165124 0 0)
(-0.61659339 0 0)
(-0.031471024 0 0)
(-0.091220871 0 0)
(-0.1468609 0 0)
(-0.19874557 0 0)
(-0.24696024 0 0)
(-0.29177988 0 0)
(-0.33325946 0 0)
(-0.37075048 0 0)
(-0.40414605 0 0)
(-0.43439322 0 0)
(-0.46150877 0 0)
(-0.48584611 0 0)
(-0.50761561 0 0)
(-0.52680858 0 0)
(-0.54369973 0 0)
(-0.55847257 0 0)
(-0.57124397 0 0)
(-0.58215131 0 0)
(-0.59139067 0 0)
(-0.59913587 0 0)
(-0.60553323 0 0)
(-0.61072514 0 0)
(-0.61486117 0 0)
(-0.61809181 0 0)
(-0.62054051 0 0)
(-0.62229996 0 0)
(-0.62346462 0 0)
(-0.62413121 0 0)
(-0.6243375 0 0)
(-0.62412447 0 0)
(-0.62351801 0 0)
(-0.62258624 0 0)
(-0.62139293 0 0)
(-0.62009482 0 0)
(-0.61887797 0 0)
(-0.61803088 0 0)
(-0.61786061 0 0)
(-0.031422882 0 0)
(-0.091026255 0 0)
(-0.14647046 0 0)
(-0.19812891 0 0)
(-0.24609347 0 0)
(-0.29065592 0 0)
(-0.3319119 0 0)
(-0.37014887 0 0)
(-0.40456712 0 0)
(-0.43496042 0 0)
(-0.46223408 0 0)
(-0.48674526 0 0)
(-0.50871073 0 0)
(-0.52808822 0 0)
(-0.54517879 0 0)
(-0.56014823 0 0)
(-0.57310913 0 0)
(-0.58420065 0 0)
(-0.59361856 0 0)
(-0.60152386 0 0)
(-0.60806506 0 0)
(-0.61338472 0 0)
(-0.61762834 0 0)
(-0.62093704 0 0)
(-0.62345764 0 0)
(-0.62529949 0 0)
(-0.62653702 0 0)
(-0.62727438 0 0)
(-0.62757251 0 0)
(-0.62746011 0 0)
(-0.62695158 0 0)
(-0.62606931 0 0)
(-0.62487709 0 0)
(-0.6234114 0 0)
(-0.62185592 0 0)
(-0.62038661 0 0)
(-0.61929192 0 0)
(-0.61888888 0 0)
(-0.031392207 0 0)
(-0.090881945 0 0)
(-0.14615578 0 0)
(-0.19760572 0 0)
(-0.24533161 0 0)
(-0.28964391 0 0)
(-0.33066887 0 0)
(-0.36869937 0 0)
(-0.4039446 0 0)
(-0.43541996 0 0)
(-0.46284359 0 0)
(-0.48751689 0 0)
(-0.50966348 0 0)
(-0.52921639 0 0)
(-0.54648702 0 0)
(-0.56164894 0 0)
(-0.57480357 0 0)
(-0.58606719 0 0)
(-0.59564684 0 0)
(-0.60371379 0 0)
(-0.610405 0 0)
(-0.61585349 0 0)
(-0.62020057 0 0)
(-0.62359331 0 0)
(-0.62617733 0 0)
(-0.62808085 0 0)
(-0.62939993 0 0)
(-0.6302058 0 0)
(-0.63057276 0 0)
(-0.63056071 0 0)
(-0.63016974 0 0)
(-0.62941199 0 0)
(-0.62829056 0 0)
(-0.62685172 0 0)
(-0.62514263 0 0)
(-0.6233424 0 0)
(-0.621639 0 0)
(-0.62031875 0 0)
(-0.61969945 0 0)
(-0.031378018 0 0)
(-0.090787038 0 0)
(-0.14592173 0 0)
(-0.19718408 0 0)
(-0.24468481 0 0)
(-0.2887531 0 0)
(-0.32954731 0 0)
(-0.36736297 0 0)
(-0.40242459 0 0)
(-0.43479326 0 0)
(-0.46333208 0 0)
(-0.488163 0 0)
(-0.51048602 0 0)
(-0.53019805 0 0)
(-0.54764414 0 0)
(-0.56298624 0 0)
(-0.57631877 0 0)
(-0.58775191 0 0)
(-0.597501 0 0)
(-0.6057232 0 0)
(-0.61255599 0 0)
(-0.61812958 0 0)
(-0.62258825 0 0)
(-0.62606815 0 0)
(-0.62870925 0 0)
(-0.63065723 0 0)
(-0.6320317 0 0)
(-0.63290694 0 0)
(-0.63333981 0 0)
(-0.63340963 0 0)
(-0.6331381 0 0)
(-0.63251673 0 0)
(-0.63153499 0 0)
(-0.63019715 0 0)
(-0.62854323 0 0)
(-0.62660261 0 0)
(-0.62458111 0 0)
(-0.62266012 0 0)
(-0.62112663 0 0)
(-0.62030651 0 0)
(-0.090743883 0 0)
(-0.031377052 0 0)
(-0.14576797 0 0)
(-0.19686474 0 0)
(-0.24415668 0 0)
(-0.28799229 0 0)
(-0.32855811 0 0)
(-0.36615426 0 0)
(-0.40101805 0 0)
(-0.43323339 0 0)
(-0.46271879 0 0)
(-0.48869359 0 0)
(-0.51117481 0 0)
(-0.53104008 0 0)
(-0.54864723 0 0)
(-0.56416229 0 0)
(-0.57767352 0 0)
(-0.58926721 0 0)
(-0.59916968 0 0)
(-0.60754741 0 0)
(-0.61452663 0 0)
(-0.62022713 0 0)
(-0.62478774 0 0)
(-0.62835415 0 0)
(-0.63106224 0 0)
(-0.6330464 0 0)
(-0.63444959 0 0)
(-0.63537486 0 0)
(-0.6358831 0 0)
(-0.63601998 0 0)
(-0.63583605 0 0)
(-0.63535088 0 0)
(-0.63452803 0 0)
(-0.6333572 0 0)
(-0.6318287 0 0)
(-0.62996904 0 0)
(-0.62781931 0 0)
(-0.62558757 0 0)
(-0.62346401 0 0)
(-0.62173335 0 0)
(-0.6207257 0 0)
(-0.1456975 0 0)
(-0.090738578 0 0)
(-0.031388681 0 0)
(-0.19665211 0 0)
(-0.24375331 0 0)
(-0.28736855 0 0)
(-0.32771153 0 0)
(-0.36508816 0 0)
(-0.39974831 0 0)
(-0.4317855 0 0)
(-0.46113058 0 0)
(-0.48809455 0 0)
(-0.51174153 0 0)
(-0.53175084 0 0)
(-0.54950742 0 0)
(-0.5651872 0 0)
(-0.57886426 0 0)
(-0.59061378 0 0)
(-0.60067488 0 0)
(-0.60920255 0 0)
(-0.61632183 0 0)
(-0.62214482 0 0)
(-0.62681295 0 0)
(-0.63046694 0 0)
(-0.63323726 0 0)
(-0.63526497 0 0)
(-0.63669374 0 0)
(-0.63763453 0 0)
(-0.63817852 0 0)
(-0.63838261 0 0)
(-0.63827312 0 0)
(-0.63789577 0 0)
(-0.6372335 0 0)
(-0.6362447 0 0)
(-0.63490112 0 0)
(-0.6331981 0 0)
(-0.63115566 0 0)
(-0.6288057 0 0)
(-0.62638195 0 0)
(-0.62406863 0 0)
(-0.6221529 0 0)
(-0.62097174 0 0)
(-0.19654626 0 0)
(-0.1456879 0 0)
(-0.090771302 0 0)
(-0.031417381 0 0)
(-0.24347726 0 0)
(-0.28688678 0 0)
(-0.32701491 0 0)
(-0.36417313 0 0)
(-0.39862415 0 0)
(-0.43047951 0 0)
(-0.45966623 0 0)
(-0.4865114 0 0)
(-0.51116378 0 0)
(-0.53232783 0 0)
(-0.55023155 0 0)
(-0.56606535 0 0)
(-0.57990416 0 0)
(-0.59180318 0 0)
(-0.60200866 0 0)
(-0.61068509 0 0)
(-0.61794812 0 0)
(-0.62389705 0 0)
(-0.62866546 0 0)
(-0.63240259 0 0)
(-0.63524316 0 0)
(-0.63731599 0 0)
(-0.63875764 0 0)
(-0.63969916 0 0)
(-0.64025399 0 0)
(-0.64049462 0 0)
(-0.64046149 0 0)
(-0.64016704 0 0)
(-0.63962779 0 0)
(-0.63882317 0 0)
(-0.63768802 0 0)
(-0.63619675 0 0)
(-0.63433654 0 0)
(-0.63211696 0 0)
(-0.62958469 0 0)
(-0.62697863 0 0)
(-0.62448881 0 0)
(-0.62239907 0 0)
(-0.62105522 0 0)
(-0.24332966 0 0)
(-0.19652051 0 0)
(-0.14574097 0 0)
(-0.090854981 0 0)
(-0.031462903 0 0)
(-0.28655183 0 0)
(-0.32647517 0 0)
(-0.36341934 0 0)
(-0.3976603 0 0)
(-0.42931865 0 0)
(-0.45833347 0 0)
(-0.48504099 0 0)
(-0.50959026 0 0)
(-0.53177689 0 0)
(-0.55081609 0 0)
(-0.56680066 0 0)
(-0.58079452 0 0)
(-0.59283642 0 0)
(-0.60318943 0 0)
(-0.61200957 0 0)
(-0.61941132 0 0)
(-0.62548248 0 0)
(-0.63035665 0 0)
(-0.63418061 0 0)
(-0.63708254 0 0)
(-0.63919723 0 0)
(-0.64066191 0 0)
(-0.64160905 0 0)
(-0.64215533 0 0)
(-0.64238918 0 0)
(-0.64238512 0 0)
(-0.64216665 0 0)
(-0.64172412 0 0)
(-0.64106877 0 0)
(-0.64014716 0 0)
(-0.63889052 0 0)
(-0.63726081 0 0)
(-0.63525339 0 0)
(-0.63287464 0 0)
(-0.63016744 0 0)
(-0.62739281 0 0)
(-0.62473654 0 0)
(-0.62248574 0 0)
(-0.62099082 0 0)
(-0.28636507 0 0)
(-0.24327947 0 0)
(-0.19657483 0 0)
(-0.14587464 0 0)
(-0.090987692 0 0)
(-0.031524429 0 0)
(-0.32609624 0 0)
(-0.36283271 0 0)
(-0.39686301 0 0)
(-0.42832401 0 0)
(-0.45715681 0 0)
(-0.48371043 0 0)
(-0.50812642 0 0)
(-0.5302228 0 0)
(-0.5502948 0 0)
(-0.56740013 0 0)
(-0.58153957 0 0)
(-0.59372141 0 0)
(-0.60421342 0 0)
(-0.61317475 0 0)
(-0.62071658 0 0)
(-0.62691341 0 0)
(-0.63188905 0 0)
(-0.63579603 0 0)
(-0.6387672 0 0)
(-0.64092868 0 0)
(-0.64241221 0 0)
(-0.64335383 0 0)
(-0.64388074 0 0)
(-0.64409245 0 0)
(-0.6440793 0 0)
(-0.64389437 0 0)
(-0.64354417 0 0)
(-0.64300027 0 0)
(-0.64224941 0 0)
(-0.64123508 0 0)
(-0.63986908 0 0)
(-0.63811809 0 0)
(-0.63597496 0 0)
(-0.63343976 0 0)
(-0.63057248 0 0)
(-0.6276388 0 0)
(-0.62482709 0 0)
(-0.62242241 0 0)
(-0.62078538 0 0)
(-0.32588127 0 0)
(-0.28629047 0 0)
(-0.24332369 0 0)
(-0.1967346 0 0)
(-0.14608894 0 0)
(-0.091169507 0 0)
(-0.031601922 0 0)
(-0.36241838 0 0)
(-0.39624244 0 0)
(-0.427497 0 0)
(-0.45613888 0 0)
(-0.48252637 0 0)
(-0.5068014 0 0)
(-0.5287837 0 0)
(-0.54878233 0 0)
(-0.56690909 0 0)
(-0.58214615 0 0)
(-0.59446422 0 0)
(-0.60509159 0 0)
(-0.61419242 0 0)
(-0.6218701 0 0)
(-0.62818933 0 0)
(-0.63327038 0 0)
(-0.63726697 0 0)
(-0.64030256 0 0)
(-0.6425064 0 0)
(-0.64401331 0 0)
(-0.64495355 0 0)
(-0.64545333 0 0)
(-0.64563626 0 0)
(-0.6455951 0 0)
(-0.64539086 0 0)
(-0.6450738 0 0)
(-0.6446303 0 0)
(-0.64401262 0 0)
(-0.64319992 0 0)
(-0.64210859 0 0)
(-0.64064912 0 0)
(-0.63878054 0 0)
(-0.63650758 0 0)
(-0.63383089 0 0)
(-0.63080952 0 0)
(-0.62772699 0 0)
(-0.62476786 0 0)
(-0.62222234 0 0)
(-0.62045383 0 0)
(-0.36217961 0 0)
(-0.32578831 0 0)
(-0.28632641 0 0)
(-0.24349828 0 0)
(-0.1969994 0 0)
(-0.1463796 0 0)
(-0.091395702 0 0)
(-0.031693537 0 0)
(-0.39580115 0 0)
(-0.42685029 0 0)
(-0.45529864 0 0)
(-0.48150783 0 0)
(-0.50562022 0 0)
(-0.52747188 0 0)
(-0.54738018 0 0)
(-0.56545661 0 0)
(-0.58169012 0 0)
(-0.59506372 0 0)
(-0.60582812 0 0)
(-0.61506385 0 0)
(-0.62287622 0 0)
(-0.62931978 0 0)
(-0.63450447 0 0)
(-0.63858761 0 0)
(-0.64169547 0 0)
(-0.64394955 0 0)
(-0.64547843 0 0)
(-0.64641432 0 0)
(-0.64688689 0 0)
(-0.64702554 0 0)
(-0.64693724 0 0)
(-0.6466927 0 0)
(-0.64635981 0 0)
(-0.64596006 0 0)
(-0.64546377 0 0)
(-0.64480565 0 0)
(-0.64394315 0 0)
(-0.64279039 0 0)
(-0.6412441 0 0)
(-0.63926926 0 0)
(-0.63687431 0 0)
(-0.63405717 0 0)
(-0.6308937 0 0)
(-0.62767115 0 0)
(-0.62457464 0 0)
(-0.62189216 0 0)
(-0.62000025 0 0)
(-0.39554417 0 0)
(-0.36207109 0 0)
(-0.32581802 0 0)
(-0.28651165 0 0)
(-0.24379533 0 0)
(-0.19736339 0 0)
(-0.1467455 0 0)
(-0.09166719 0 0)
(-0.031799454 0 0)
(-0.42638602 0 0)
(-0.45463626 0 0)
(-0.48065947 0 0)
(-0.50460376 0 0)
(-0.52630798 0 0)
(-0.5460953 0 0)
(-0.5640975 0 0)
(-0.58030059 0 0)
(-0.59465478 0 0)
(-0.60642148 0 0)
(-0.61579263 0 0)
(-0.62373877 0 0)
(-0.63030591 0 0)
(-0.6355968 0 0)
(-0.63977313 0 0)
(-0.64295217 0 0)
(-0.64525489 0 0)
(-0.64681131 0 0)
(-0.64775005 0 0)
(-0.64819754 0 0)
(-0.64828302 0 0)
(-0.6481308 0 0)
(-0.64783654 0 0)
(-0.64745894 0 0)
(-0.64703998 0 0)
(-0.64659656 0 0)
(-0.64607424 0 0)
(-0.64539295 0 0)
(-0.64450289 0 0)
(-0.64329752 0 0)
(-0.64167332 0 0)
(-0.63959245 0 0)
(-0.63707921 0 0)
(-0.63413418 0 0)
(-0.63083442 0 0)
(-0.62747826 0 0)
(-0.62425081 0 0)
(-0.62144572 0 0)
(-0.61943979 0 0)
(-0.42610869 0 0)
(-0.39542325 0 0)
(-0.36209423 0 0)
(-0.32601086 0 0)
(-0.2868423 0 0)
(-0.24421791 0 0)
(-0.19782511 0 0)
(-0.14718007 0 0)
(-0.091977156 0 0)
(-0.031917135 0 0)
(-0.45416289 0 0)
(-0.47999449 0 0)
(-0.50375588 0 0)
(-0.52529997 0 0)
(-0.54495495 0 0)
(-0.56285629 0 0)
(-0.57899577 0 0)
(-0.59334138 0 0)
(-0.60606009 0 0)
(-0.61638743 0 0)
(-0.62446406 0 0)
(-0.63115239 0 0)
(-0.63655086 0 0)
(-0.64081864 0 0)
(-0.64407588 0 0)
(-0.64643644 0 0)
(-0.64802311 0 0)
(-0.64896438 0 0)
(-0.64938799 0 0)
(-0.64942362 0 0)
(-0.64919538 0 0)
(-0.64882255 0 0)
(-0.64838377 0 0)
(-0.64791634 0 0)
(-0.64746412 0 0)
(-0.64701124 0 0)
(-0.64649219 0 0)
(-0.64580927 0 0)
(-0.64489656 0 0)
(-0.64364695 0 0)
(-0.64194777 0 0)
(-0.63976834 0 0)
(-0.63714244 0 0)
(-0.63407019 0 0)
(-0.63064292 0 0)
(-0.62716235 0 0)
(-0.62381255 0 0)
(-0.62088673 0 0)
(-0.61877256 0 0)
(-0.45387818 0 0)
(-0.42597075 0 0)
(-0.39543805 0 0)
(-0.36229074 0 0)
(-0.32636417 0 0)
(-0.28731556 0 0)
(-0.24475297 0 0)
(-0.19837608 0 0)
(-0.14768103 0 0)
(-0.092325643 0 0)
(-0.032046062 0 0)
(-0.47951478 0 0)
(-0.50308996 0 0)
(-0.52446439 0 0)
(-0.54396255 0 0)
(-0.56174361 0 0)
(-0.57780259 0 0)
(-0.59211025 0 0)
(-0.60483548 0 0)
(-0.6160698 0 0)
(-0.62505027 0 0)
(-0.63186474 0 0)
(-0.63737087 0 0)
(-0.64173486 0 0)
(-0.64507185 0 0)
(-0.64749091 0 0)
(-0.64911507 0 0)
(-0.65006784 0 0)
(-0.65047287 0 0)
(-0.65045923 0 0)
(-0.65015625 0 0)
(-0.64968821 0 0)
(-0.64915765 0 0)
(-0.64862898 0 0)
(-0.64812991 0 0)
(-0.64767351 0 0)
(-0.64723903 0 0)
(-0.64673886 0 0)
(-0.6460646 0 0)
(-0.64514241 0 0)
(-0.64385214 0 0)
(-0.64208193 0 0)
(-0.63980302 0 0)
(-0.63706679 0 0)
(-0.63387743 0 0)
(-0.63032809 0 0)
(-0.62672728 0 0)
(-0.62326058 0 0)
(-0.62022806 0 0)
(-0.61801395 0 0)
(-0.47922725 0 0)
(-0.45373435 0 0)
(-0.42597186 0 0)
(-0.39563684 0 0)
(-0.36266031 0 0)
(-0.32687268 0 0)
(-0.28792354 0 0)
(-0.24540314 0 0)
(-0.19901218 0 0)
(-0.14823829 0 0)
(-0.092702718 0 0)
(-0.032144782 0 0)
(-0.50260873 0 0)
(-0.52380443 0 0)
(-0.54313869 0 0)
(-0.5607793 0 0)
(-0.5767282 0 0)
(-0.59097321 0 0)
(-0.60368511 0 0)
(-0.61494544 0 0)
(-0.62478735 0 0)
(-0.63243996 0 0)
(-0.63805844 0 0)
(-0.64252029 0 0)
(-0.6459412 0 0)
(-0.64842773 0 0)
(-0.6500946 0 0)
(-0.6510631 0 0)
(-0.6514538 0 0)
(-0.65139755 0 0)
(-0.65102232 0 0)
(-0.65045336 0 0)
(-0.64980993 0 0)
(-0.64918334 0 0)
(-0.64861548 0 0)
(-0.64811524 0 0)
(-0.64769559 0 0)
(-0.64730134 0 0)
(-0.64683877 0 0)
(-0.64618491 0 0)
(-0.64525319 0 0)
(-0.64392537 0 0)
(-0.64208507 0 0)
(-0.63971152 0 0)
(-0.63686909 0 0)
(-0.63356449 0 0)
(-0.6298987 0 0)
(-0.62618713 0 0)
(-0.62261082 0 0)
(-0.61947021 0 0)
(-0.61712291 0 0)
(-0.50231715 0 0)
(-0.47907879 0 0)
(-0.45373157 0 0)
(-0.42616369 0 0)
(-0.39601365 0 0)
(-0.3631947 0 0)
(-0.32753018 0 0)
(-0.28866102 0 0)
(-0.24615054 0 0)
(-0.19972379 0 0)
(-0.14885007 0 0)
(-0.092882771 0 0)
(-0.032103163 0 0)
(-0.52333075 0 0)
(-0.54248468 0 0)
(-0.55997024 0 0)
(-0.57579542 0 0)
(-0.589952 0 0)
(-0.60261529 0 0)
(-0.61387548 0 0)
(-0.62375846 0 0)
(-0.63222938 0 0)
(-0.63861885 0 0)
(-0.64317849 0 0)
(-0.64668717 0 0)
(-0.64924465 0 0)
(-0.65096167 0 0)
(-0.65195564 0 0)
(-0.65234105 0 0)
(-0.65224566 0 0)
(-0.65180202 0 0)
(-0.65113586 0 0)
(-0.65036715 0 0)
(-0.64961182 0 0)
(-0.64894246 0 0)
(-0.64838321 0 0)
(-0.64792822 0 0)
(-0.64756168 0 0)
(-0.64722642 0 0)
(-0.64680797 0 0)
(-0.64617789 0 0)
(-0.64524231 0 0)
(-0.6438772 0 0)
(-0.64196751 0 0)
(-0.63949823 0 0)
(-0.63655429 0 0)
(-0.63314018 0 0)
(-0.62936457 0 0)
(-0.62554187 0 0)
(-0.62186008 0 0)
(-0.61857937 0 0)
(-0.61609083 0 0)
(-0.52304281 0 0)
(-0.50216429 0 0)
(-0.47907033 0 0)
(-0.45391982 0 0)
(-0.42653986 0 0)
(-0.39656724 0 0)
(-0.36388992 0 0)
(-0.32832927 0 0)
(-0.28951917 0 0)
(-0.24699497 0 0)
(-0.20050161 0 0)
(-0.14910691 0 0)
(-0.092743278 0 0)
(-0.03205286 0 0)
(-0.54201316 0 0)
(-0.55933115 0 0)
(-0.57500915 0 0)
(-0.58905679 0 0)
(-0.60165249 0 0)
(-0.6128849 0 0)
(-0.62278028 0 0)
(-0.63130491 0 0)
(-0.63845861 0 0)
(-0.64371441 0 0)
(-0.64731228 0 0)
(-0.6499456 0 0)
(-0.65172033 0 0)
(-0.65274666 0 0)
(-0.65313424 0 0)
(-0.65300918 0 0)
(-0.65250323 0 0)
(-0.6517424 0 0)
(-0.65085386 0 0)
(-0.64996119 0 0)
(-0.64915199 0 0)
(-0.64848332 0 0)
(-0.64796766 0 0)
(-0.64757813 0 0)
(-0.64729476 0 0)
(-0.64702845 0 0)
(-0.64666462 0 0)
(-0.64606227 0 0)
(-0.64511928 0 0)
(-0.64371631 0 0)
(-0.64173726 0 0)
(-0.63917535 0 0)
(-0.63613344 0 0)
(-0.63261481 0 0)
(-0.62872914 0 0)
(-0.62480631 0 0)
(-0.62096181 0 0)
(-0.61753436 0 0)
(-0.61493382 0 0)
(-0.54172381 0 0)
(-0.52289217 0 0)
(-0.50214875 0 0)
(-0.47925416 0 0)
(-0.45429829 0 0)
(-0.42709979 0 0)
(-0.39728515 0 0)
(-0.36473418 0 0)
(-0.32925801 0 0)
(-0.29048434 0 0)
(-0.24791706 0 0)
(-0.20079781 0 0)
(-0.14889329 0 0)
(-0.09258231 0 0)
(-0.0319954 0 0)
(-0.55886417 0 0)
(-0.57438507 0 0)
(-0.58830486 0 0)
(-0.60080268 0 0)
(-0.61198155 0 0)
(-0.62186382 0 0)
(-0.63042165 0 0)
(-0.63765104 0 0)
(-0.64360646 0 0)
(-0.64781626 0 0)
(-0.65053251 0 0)
(-0.65237079 0 0)
(-0.65343834 0 0)
(-0.65383855 0 0)
(-0.65369213 0 0)
(-0.65313114 0 0)
(-0.65228432 0 0)
(-0.65127769 0 0)
(-0.65023628 0 0)
(-0.64926821 0 0)
(-0.64845635 0 0)
(-0.6478369 0 0)
(-0.64740328 0 0)
(-0.64711236 0 0)
(-0.64691701 0 0)
(-0.64672925 0 0)
(-0.64641884 0 0)
(-0.64584339 0 0)
(-0.64489346 0 0)
(-0.64345084 0 0)
(-0.64140108 0 0)
(-0.63874852 0 0)
(-0.63561431 0 0)
(-0.63198979 0 0)
(-0.62800333 0 0)
(-0.62389363 0 0)
(-0.61989577 0 0)
(-0.61637466 0 0)
(-0.6136645 0 0)
(-0.55857778 0 0)
(-0.5415692 0 0)
(-0.5228772 0 0)
(-0.5023259 0 0)
(-0.47962517 0 0)
(-0.45485796 0 0)
(-0.42783197 0 0)
(-0.39816471 0 0)
(-0.36571849 0 0)
(-0.33030899 0 0)
(-0.29154747 0 0)
(-0.24824728 0 0)
(-0.20048181 0 0)
(-0.14863464 0 0)
(-0.092395757 0 0)
(-0.031927239 0 0)
(-0.57392563 0 0)
(-0.58770158 0 0)
(-0.60008639 0 0)
(-0.61118841 0 0)
(-0.62102945 0 0)
(-0.62958613 0 0)
(-0.6368666 0 0)
(-0.64292059 0 0)
(-0.64776432 0 0)
(-0.65100204 0 0)
(-0.65291156 0 0)
(-0.65402969 0 0)
(-0.65445277 0 0)
(-0.65429623 0 0)
(-0.65369072 0 0)
(-0.65276343 0 0)
(-0.6516428 0 0)
(-0.65045919 0 0)
(-0.64933308 0 0)
(-0.64835677 0 0)
(-0.6475846 0 0)
(-0.64704685 0 0)
(-0.6467181 0 0)
(-0.64653415 0 0)
(-0.64644621 0 0)
(-0.64633824 0 0)
(-0.64608455 0 0)
(-0.64553426 0 0)
(-0.64457215 0 0)
(-0.6430869 0 0)
(-0.64096707 0 0)
(-0.63822477 0 0)
(-0.63499846 0 0)
(-0.63127809 0 0)
(-0.62708504 0 0)
(-0.62280889 0 0)
(-0.61871894 0 0)
(-0.61509035 0 0)
(-0.61226962 0 0)
(-0.573639 0 0)
(-0.55841987 0 0)
(-0.5415486 0 0)
(-0.52305038 0 0)
(-0.50268931 0 0)
(-0.48018142 0 0)
(-0.45559629 0 0)
(-0.42873197 0 0)
(-0.39918911 0 0)
(-0.36683184 0 0)
(-0.3314602 0 0)
(-0.29191789 0 0)
(-0.24785218 0 0)
(-0.20011214 0 0)
(-0.14833767 0 0)
(-0.092185384 0 0)
(-0.031849968 0 0)
(-0.58725812 0 0)
(-0.59950677 0 0)
(-0.61051047 0 0)
(-0.6202887 0 0)
(-0.6288227 0 0)
(-0.63612229 0 0)
(-0.64224239 0 0)
(-0.64720358 0 0)
(-0.65100587 0 0)
(-0.65334792 0 0)
(-0.65452223 0 0)
(-0.65497663 0 0)
(-0.65482216 0 0)
(-0.65418347 0 0)
(-0.65318787 0 0)
(-0.65196329 0 0)
(-0.65064089 0 0)
(-0.64934852 0 0)
(-0.64819316 0 0)
(-0.64724506 0 0)
(-0.64655713 0 0)
(-0.64613653 0 0)
(-0.6459386 0 0)
(-0.64588192 0 0)
(-0.64589691 0 0)
(-0.64587168 0 0)
(-0.6456686 0 0)
(-0.64513904 0 0)
(-0.64416115 0 0)
(-0.64263119 0 0)
(-0.64043839 0 0)
(-0.63761033 0 0)
(-0.63429797 0 0)
(-0.63035954 0 0)
(-0.62597877 0 0)
(-0.6216042 0 0)
(-0.61741626 0 0)
(-0.61369226 0 0)
(-0.6107636 0 0)
(-0.58697526 0 0)
(-0.57347558 0 0)
(-0.55839249 0 0)
(-0.54171169 0 0)
(-0.52340854 0 0)
(-0.50323783 0 0)
(-0.48091202 0 0)
(-0.45649902 0 0)
(-0.42978363 0 0)
(-0.40034838 0 0)
(-0.36805427 0 0)
(-0.33184942 0 0)
(-0.2914693 0 0)
(-0.24739094 0 0)
(-0.19968671 0 0)
(-0.14799201 0 0)
(-0.091945973 0 0)
(-0.031760454 0 0)
(-0.59907617 0 0)
(-0.60996432 0 0)
(-0.61965762 0 0)
(-0.62813901 0 0)
(-0.63543185 0 0)