/*--------------------------------*- C++ -*----------------------------------*\
| =========                 |                                                 |
| \\      /  F ield         | OpenFOAM: The Open Source CFD Toolbox           |
|  \\    /   O peration     | Version:  v2012                                 |
|   \\  /    A nd           | Website:  www.openfoam.com                      |
|    \\/     M anipulation  |                                                 |
\*---------------------------------------------------------------------------*/
FoamFile
{
    version     2.0;
    format      ascii;
    class       surfaceScalarField;
    location    "97.0873433266573755";
    object      meshPhi;
}
// * * * * * * * * * * * * * * * * * * * * * * * * * * * * * * * * * * * * * //

dimensions      [0 3 -1 0 0 0 0];
oriented        oriented;


internalField   nonuniform List<scalar> 
18180
(
0
-0.082746189
0
-0.07592993
0
-0.16477066
0
-0.067772659
0
-0.15167497
0
-0.24234362
0
-0.059819423
-8.7047151e-14
-0.13717331
0
-0.22458846
0
-0.31353325
-9.0517249e-14
-0.053345729
0
-0.12237396
0
-0.20539498
0
-0.29177294
7.7669442e-14
-0.37750698
0
-0.048928385
8.7181817e-14
-0.10983889
0
-0.1859199
0
-0.26928372
0
-0.35205974
-7.470797e-14
-0.43432303
4.5320731e-14
-0.046118704
0
-0.10052455
4.1993663e-14
-0.16847814
4.0341964e-14
-0.24659681
-7.7641793e-14
-0.32680293
0
-0.40579864
0
-0.48544232
0
-0.04403329
4.3630101e-14
-0.093818103
0
-0.15441164
4.038821e-14
-0.22541505
3.8830971e-14
-0.30158798
7.4786525e-14
-0.37811818
0
-0.45398582
0
-0.53135176
0
-0.042251037
0
-0.088704979
0
-0.14354786
0
-0.2072972
-3.8842122e-14
-0.2777975
3.7402956e-14
-0.35131993
-7.1933706e-14
-0.42449938
0
-0.49759844
-6.662879e-14
-0.57288249
0
-0.04054336
0
-0.084300768
4.1978445e-14
-0.13486729
0
-0.19252885
0
-0.25653337
3.7413133e-14
-0.3257385
0
-0.39646619
0
-0.46633625
0
-0.53674864
0
-0.6100969
0
-0.038862243
0
-0.080204621
4.2028354e-14
-0.1274194
0
-0.18036794
-3.886739e-14
-0.23822161
-3.7423872e-14
-0.30197738
-3.5982849e-14
-0.36979419
0
-0.43722518
3.8515408e-17
-0.50383746
0
-0.57202553
0
-0.64395425
4.539487e-14
-0.037196308
0
-0.076257831
0
-0.12063137
0
-0.16995645
0
-0.22287976
3.7435086e-14
-0.28101151
3.5991711e-14
-0.34475995
3.4681354e-14
-0.40994489
0
-0.47363444
0
-0.53745213
0
-0.60390875
2.7355965e-17
-0.67472388
-2.2723816e-14
-0.035541769
0
-0.07241889
0
-0.11422575
-4.0430014e-14
-0.16059422
0
-0.20972593
-3.7418258e-14
-0.26289405
-3.600134e-14
-0.32174499
-2.4725624e-17
-0.38402459
2.1076563e-17
-0.44556396
-1.7733063e-17
-0.50592463
0
-0.56779225
0
-0.63300513
-5.722132e-14
-0.70280999
2.2732095e-14
-0.033891837
0
-0.068666704
0
-0.10809593
0
-0.15188794
0
-0.19789263
0
-0.24705673
-3.6038345e-14
-0.30111034
0
-0.35938779
3.3342974e-14
-0.4187468
3.2106625e-14
-0.47687084
-3.0898521e-14
-0.53491231
5.9477377e-14
-0.59533584
0
-0.65940875
2.2678978e-17
-0.72831904
2.2721291e-14
-0.032250273
0
-0.06500353
0
-0.10220193
0
-0.14366083
0
-0.18691833
0
-0.23280553
0
-0.28272167
-3.4683417e-14
-0.33649511
3.3372332e-14
-0.39275945
-1.9082051e-17
-0.44911262
-3.088809e-14
-0.50457803
-1.4182328e-17
-0.56098738
0
-0.62033541
0
-0.68351458
0
-0.75171319
0
-0.030624934
2.1884469e-14
-0.061437864
0
-0.096530902
0
-0.13584547
0
-0.17656696
0
-0.21955505
0
-0.26604586
0
-0.31561645
0
-0.36779606
1.9163349e-17
-0.42167543
0
-0.47554345
0
-0.52923474
0
-0.58459766
5.5123001e-14
-0.64310276
0
-0.70554584
0
-0.77313887
2.2752874e-14
-0.029015722
0
-0.057986034
2.1058829e-14
-0.091086372
-2.0241459e-14
-0.12840537
0
-0.16674935
0
-0.20705287
0
-0.25060566
2.4631773e-17
-0.29658605
0
-0.34448309
0
-0.3948726
0
-0.44693328
0
-0.49898605
-1.1450868e-13
-0.55153747
2.7553095e-14
-0.60611848
5.3071003e-14
-0.66400907
0
-0.72580423
1.7323402e-17
-0.79272483
-2.2758539e-14
-0.02742487
0
-0.054655905
0
-0.085869294
1.7224566e-17
-0.12131686
0
-0.15742307
-1.8751148e-14
-0.19518639
0
-0.23610475
0
-0.2790839
0
-0.32324656
0
-0.36961939
0
-0.41883533
0
-0.4693435
0
-0.52012589
1.182298e-17
-0.57188212
-1.0772228e-17
-0.62592683
1.9537112e-17
-0.68319456
0
-0.74428734
0
-0.81056048
2.276363e-14
-0.025854768
2.1885121e-14
-0.051452135
2.107011e-14
-0.080882944
2.0269821e-14
-0.11455848
0
-0.1485554
1.8756058e-14
-0.18391231
0
-0.2223968
0
-0.26278101
0
-0.30387114
0
-0.34641615
0
-0.39203706
0
-0.4403801
2.863222e-14
-0.48959244
0
-0.53938564
2.6541129e-14
-0.59061628
2.5551064e-14
-0.64410581
-4.9182848e-14
-0.70077701
0
-0.76119536
-4.5605735e-14
-0.82685155
0
-0.024311743
0
-0.048379506
2.1057955e-14
-0.076125805
-2.0257177e-14
-0.10810967
-1.549503e-17
-0.14012649
1.8760668e-14
-0.17320491
0
-0.20941317
0
-0.24746102
0
-0.28596316
0
-0.32534003
0
-0.36734525
0
-0.41278015
0
-0.46005704
-2.7563523e-14
-0.50800097
0
-0.55711668
2.5553344e-14
-0.60782601
0
-0.66079045
0
-0.71683758
0
-0.77662462
0
-0.84171466
-2.2772236e-14
-0.022807591
2.1910843e-14
-0.045441497
0
-0.071600462
0
-0.10195606
1.9507784e-14
-0.13210878
0
-0.16304848
1.8052094e-14
-0.19711397
1.2515759e-17
-0.2329993
-1.07922e-17
-0.2692249
0
-0.30603901
0
-0.34484984
-2.9756439e-14
-0.38701558
0
-0.43191706
0
-0.47786118
2.6547107e-14
-0.52481002
0
-0.57340587
2.4612805e-14
-0.62366603
-2.3689292e-14
-0.67607314
0
-0.73158839
0
-0.79073126
0
-0.85519262
0
-0.021353527
0
-0.042642948
0
-0.067305561
0
-0.096077285
1.9496417e-14
-0.12448448
1.3744287e-17
-0.15342039
1.8042387e-14
-0.18547061
-1.7358241e-14
-0.21933133
1.0845864e-17
-0.25345517
0
-0.28807238
0
-0.32426489
0
-0.36331222
1.4988765e-17
-0.40538906
0
-0.4491921
0
-0.49394714
2.555787e-14
-0.54025641
-2.4605184e-14
-0.58846156
-4.7363649e-14
-0.63822856
2.280394e-14
-0.69014209
4.393493e-14
-0.74504497
0
-0.80353534
0
-0.86738624
-9.647106e-18
-0.019956675
0
-0.03998393
0
-0.063233555
-2.0269424e-14
-0.090460867
-3.9016191e-14
-0.11722816
0
-0.14430339
-1.8045949e-14
-0.17446029
0
-0.20640964
0
-0.23854767
1.6081432e-14
-0.27118113
-1.5473577e-14
-0.30521815
0
-0.34157481
0
-0.38068367
2.7585294e-14
-0.42208373
0
-0.4648408
0
-0.50873111
-2.4597155e-14
-0.55454972
0
-0.6023377
-2.2804237e-14
-0.65164762
0
-0.70300304
-4.2299561e-14
-0.75733139
0
-0.81515133
0
-0.87841075
-1.1381259e-14
-0.018622018
-8.4909585e-18
-0.037464538
0
-0.059376673
0
-0.085093866
0
-0.11032484
0
-0.13568143
-1.806293e-14
-0.16405467
1.2815506e-17
-0.19419411
0
-0.22444036
0
-0.25520671
0
-0.28735009
1.4884349e-14
-0.32147604
0
-0.35789073
0
-0.39657805
0
-0.4372641
0
-0.47915152
-2.4607976e-14
-0.52234873
0
-0.56776476
-8.0162901e-18
-0.61516053
-2.1960359e-14
-0.66393775
0
-0.71475225
0
-0.76845836
0
-0.82566312
0
-0.88837574
0
-0.017355034
0
-0.035081989
1.0538097e-14
-0.055725556
0
-0.079968053
0
-0.10375673
1.3604959e-17
-0.12753667
0
-0.15422699
1.7367937e-14
-0.18264686
0
-0.21108385
1.607734e-14
-0.24006943
-1.5469675e-14
-0.27047472
1.4894433e-14
-0.30268707
1.4326002e-14
-0.33682361
0
-0.37279483
0
-0.41106091
0
-0.45125585
0
-0.49235054
0
-0.53496872
0
-0.57999943
-2.1967292e-14
-0.62693719
-2.1148737e-14
-0.67518729
-2.0375042e-14
-0.72543533
3.9249556e-14
-0.77859668
0
-0.83516151
0
-0.89730094
-9.536673e-18
-0.01615853
0
-0.032834374
-1.0539399e-14
-0.05227373
0
-0.07508066
0
-0.097511815
0
-0.11985017
-1.8055014e-14
-0.14495013
1.7383705e-14
-0.17173271
0
-0.19844168
0
-0.22572056
1.5471803e-14
-0.2544894
-1.4879881e-14
-0.28497752
1.4335219e-14
-0.31719961
-1.3796167e-14
-0.35081125
0
-0.38647683
0
-0.42471572
-2.459899e-14
-0.46429432
0
-0.50457495
2.2804018e-14
-0.54667707
2.1966793e-14
-0.59131685
-2.1154566e-14
-0.63775856
-2.0368158e-14
-0.68545143
-1.961862e-14
-0.73517479
3.7804846e-14
-0.78773238
0
-0.843698
-3.50726e-14
-0.90527701
1.1394044e-14
-0.015033193
-8.6390705e-18
-0.030717895
0
-0.049014384
-3.0431064e-14
-0.070432285
-9.764111e-15
-0.091582629
0
-0.11260102
0
-0.13620184
-1.7373261e-14
-0.16142019
0
-0.1864791
0
-0.2121237
8.8515385e-18
-0.23933765
0
-0.26822084
2.8673595e-14
-0.29876157
0
-0.3304163
1.3273163e-14
-0.3636141
0
-0.3994962
0
-0.43759732
0
-0.47636311
0
-0.51589461
2.1966037e-14
-0.55756096
-2.1146501e-14
-0.6017408
0
-0.64764823
5.4834549e-18
-0.69480264
0
-0.74398285
3.6414782e-14
-0.79599344
0
-0.85133229
3.3792565e-14
-0.9123818
0
-0.013978761
1.0965364e-14
-0.028726454
-1.0550589e-14
-0.045940816
0
-0.066022972
-9.7571984e-15
-0.085962068
9.3865682e-15
-0.10576535
-1.8073665e-14
-0.12795249
0
-0.1516765
0
-0.17516735
-1.609359e-14
-0.19924779
3.0960283e-14
-0.2249776
0
-0.25233846
-1.4338339e-14
-0.2813434
7.1539889e-18
-0.3113061
0
-0.34236648
-1.278284e-14
-0.37578544
0
-0.41195445
0
-0.44954859
0
-0.48745862
0
-0.52639238
0
-0.56759762
2.037138e-14
-0.61129857
1.961551e-14
-0.6566524
1.8899946e-14
-0.70326419
1.8206211e-14
-0.75193372
0
-0.80336813
0
-0.85814892
3.2553564e-14
-0.91870646
0
-0.012995011
0
-0.026857118
-1.0533339e-14
-0.043045777
-9.4112983e-18
-0.061850707
0
-0.080643131
9.3875393e-15
-0.099320877
-9.0378583e-15
-0.12017566
-1.7377677e-14
-0.14247163
0
-0.16447407
1.6095514e-14
-0.18706506
0
-0.2113769
1.4893229e-14
-0.23728018
-1.4331674e-14
-0.2648445
0
-0.29328684
6.3589525e-18
-0.32251972
-1.277722e-14
-0.35364817
1.2299451e-14
-0.38749943
-2.3692471e-14
-0.42361371
0
-0.46048897
-2.1955499e-14
-0.49760597
0
-0.5360254
-6.5871565e-18
-0.57679854
1.9613319e-14
-0.61997718
0
-0.66479625
1.8204569e-14
-0.71089558
3.5074513e-14
-0.75907304
-3.3782946e-14
-0.80999839
0
-0.86419639
3.1360829e-14
-0.92426279
0
-0.012073546
0
-0.025107635
0
-0.040320579
9.4034797e-18
-0.057915109
-9.7671309e-15
-0.07561795
0
-0.093248814
9.0387632e-15
-0.11284531
-6.5817014e-18
-0.13377621
0
-0.15437166
0
-0.17555036
1.5488129e-14
-0.19850656
0
-0.22300469
0
-0.24920298
7.4395725e-18
-0.27623358
-1.3275283e-14
-0.30382843
-1.2777598e-14
-0.33295774
0
-0.36447584
-5.4354782e-18
-0.3985336
-9.9143359e-18
-0.43421904
0
-0.47029897
-2.1141176e-14
-0.50681298
0
-0.54481878
0
-0.58514637
0
-0.62784147
1.8197818e-14
-0.67212824
-1.7531463e-14
-0.71776365
1.6890034e-14
-0.76548545
0
-0.81586343
0
-0.86953841
-3.0208217e-14
-0.92912161
-5.4856207e-05
-0.013149512
0
-0.023464739
1.0552952e-14
-0.03775692
1.0144133e-14
-0.054206907
0
-0.070879152
-9.3961687e-15
-0.087528469
-9.0325227e-15
-0.10593779
8.697184e-15
-0.1255611
8.3617621e-15
-0.14483022
0
-0.16467672
0
-0.18633702
0
-0.20948078
0
-0.23437009
1.3794261e-14
-0.26006982
1.3282393e-14
-0.28615059
0
-0.31351656
1.2305105e-14
-0.34291526
5.3154766e-18
-0.37463942
-1.1404122e-14
-0.40858851
0
-0.44372212
0
-0.47910723
2.0364871e-14
-0.51517763
0
-0.55280359
0
-0.59270366
1.8199736e-14
-0.63489355
0
-0.67871257
0
-0.72391542
1.6270864e-14
-0.77119884
-3.1352652e-14
-0.82107508
3.0211583e-14
-0.8742009
0
-0.93334273
-9.1590007e-05
-0.013022693
-0.00015668387
-0.025512545
0
-0.035341684
0
-0.050715907
0
-0.066414182
9.3968335e-15
-0.082138774
9.0331866e-15
-0.099427739
0
-0.11780395
0
-0.13582175
8.0455451e-15
-0.15441705
0
-0.17483789
0
-0.19666798
0
-0.22030394
0
-0.24474698
0
-0.26939652
-1.2778372e-14
-0.29515867
0
-0.32270021
0
-0.35221014
1.1403388e-14
-0.38398736
-1.0979482e-14
-0.41768243
0
-0.45215922
0
-0.48702016
6.1357197e-18
-0.52273944
-1.888419e-14
-0.56000664
-1.8191735e-14
-0.5994697
4.242279e-18
-0.64121984
-1.6889245e-14
-0.68458174
3.1988827e-18
-0.72940307
-2.7876358e-18
-0.77626285
-3.0205161e-14
-0.82561867
-2.9106068e-14
-0.87826516
2.8042413e-14
-0.93699753
-0.00011251293
-0.012895773
-0.00026277247
-0.025501464
-0.00025118365
-0.03818755
0
-0.04742607
0
-0.062210406
0
-0.077059602
7.069683e-18
-0.093295785
-8.6985046e-15
-0.11048395
8.3632399e-15
-0.12732118
-8.0416229e-15
-0.14474344
-4.6361175e-18
-0.16397585
-1.4907666e-14
-0.18452981
0
-0.20696181
-1.3796036e-14
-0.23021972
-1.3283776e-14
-0.25351182
-1.2784549e-14
-0.2777822
1.2305112e-14
-0.30366768
0
-0.3312117
-1.1397875e-14
-0.36071925
-1.0973999e-14
-0.39248765
-1.0571146e-14
-0.4258009
0
-0.45968178
0
-0.49412512
0
-0.52954886
-3.6381115e-14
-0.56644916
3.5049276e-14
-0.60551449
-1.688242e-14
-0.64682872
-1.6269615e-14
-0.68980296
1.5672988e-14
-0.73426075
3.0204848e-14
-0.78072566
4.1303485e-18
-0.82960553
0
-0.88175531
0
-0.94009577
-0.00011991905
-0.012775636
-0.00032420881
-0.025478687
-0.00042267669
-0.038336082
-0.00034088725
-0.050803362
0
-0.058237791
0
-0.072272696
0
-0.087516922
6.4914366e-18
-0.10358446
-5.195557e-18
-0.11930509
1.6098257e-14
-0.13562555
0
-0.15371889
7.4500564e-15
-0.17302921
0
-0.19430164
0
-0.216452
-1.3277919e-14
-0.23845172
0
-0.26131349
-1.2305156e-14
-0.28569279
5.0204115e-18
-0.31148879
0
-0.33890112
-1.0973067e-14
-0.36852777
0
-0.40026581
1.0174723e-14
-0.43305804
0
-0.46640234
0
-0.50053688
0
-0.53564378
0
-0.57218139
0
-0.61087191
-1.6263113e-14
-0.65181698
-1.5673302e-14
-0.69440327
-1.5099342e-14
-0.73856113
-2.9102058e-14
-0.7846391
-2.803652e-14
-0.83301813
0
-0.88473508
2.6030022e-14
-0.94269055
-0.00011601009
-0.01266305
-0.0003469198
-0.025450426
-0.0005231688
-0.038454939
-0.0005738473
-0.051080015
-0.00041971541
-0.06199199
0
-0.067744863
0
-0.082066469
0
-0.097081226
5.1383271e-18
-0.11175133
-4.5611755e-18
-0.12703414
0
-0.14403648
0
-0.16213808
0
-0.18228755
0
-0.20340436
0
-0.22417888
0
-0.24570052
0
-0.26868652
0
-0.29290813
-1.1396755e-14
-0.31845552
1.0976382e-14
-0.34596411
4.0971945e-18
-0.37581322
1.017693e-14
-0.40729896
9.7973838e-15
-0.4394819
0
-0.47241776
0
-0.506296
0
-0.54108718
0
-0.57727151
0
-0.61562366
-1.5667173e-14
-0.65619345
1.5096848e-14
-0.69846395
1.4549298e-14
-0.74232358
1.4015144e-14
-0.7880351
-2.7012128e-14
-0.835944
0
-0.8872146
2.5079199e-14
-0.94482892
-0.00010295261
-0.012558411
-0.00033686823
-0.025416478
-0.00056148994
-0.038550781
-0.0007104576
-0.051311486
-0.00070668783
-0.06255154
-0.00048341616
-0.07169098
0
-0.07691179
0
-0.090951488
0
-0.1046405
4.5396315e-18
-0.11894371
-4.6509681e-18
-0.13489992
0
-0.15183094
7.1743593e-15
-0.17089755
6.8948799e-15
-0.19104492
0
-0.21066003
-1.2785625e-14
-0.23089779
0
-0.25258612
-1.1843708e-14
-0.27536363
-2.2796815e-14
-0.29922689
0
-0.32479314
-1.0567358e-14
-0.35264268
-1.0167811e-14
-0.38251833
0
-0.41347437
-2.849877e-18
-0.44517414
0
-0.47787099
0
-0.51147858
1.6873796e-14
-0.54591803
0
-0.58176754
0
-0.61979875
-1.5093607e-14
-0.66005092
1.4544728e-14
-0.70199138
1.8981894e-18
-0.74560243
2.7011549e-14
-0.7909397
-2.6025629e-14
-0.83837508
0
-0.889266
0
-0.94656488
-8.2837469e-05
-0.01246306
-0.00029995106
-0.02537672
-0.00054675155
-0.038623805
-0.00076283044
-0.051509001
-0.00087531164
-0.063039388
-0.00081495932
-0.072609644
-0.0005356244
-0.080816907
0
-0.085155451
0
-0.097952483
0
-0.11133331
4.6371486e-18
-0.12628411
-4.2235117e-18
-0.14209056
0
-0.16011203
-6.8995129e-15
-0.17934315
0
-0.19786354
0
-0.21687152
0
-0.23733958
0
-0.25877866
0
-0.28109777
-3.8459893e-18
-0.30490998
0
-0.33083312
-1.0170148e-14
-0.35891836
9.7970982e-15
-0.38849378
9.4352551e-15
-0.41894677
-2.5711806e-18
-0.45034115
0
-0.4828126
0
-0.51609859
0
-0.55018699
0
-0.5857187
0
-0.6234634
1.4543796e-14
-0.66339101
0
-0.7050546
-1.3501853e-14
-0.74840834
0
-0.79339934
0
-0.84039567
0
-0.89090185
1.1919272e-18
-0.94790622
-5.7685386e-05
-0.012378203
-0.00024207182
-0.02533229
-0.00048806942
-0.038674396
-0.00074314199
-0.051674711
-0.00094029561
-0.063473987
-0.0010106593
-0.073426167
-0.00090364537
-0.082042593
-0.00057810878
-0.088784185
8.3653249e-15
-0.091630576
0
-0.1041798
0
-0.1181652
4.1451407e-18
-0.13289786
7.1706357e-15
-0.14991463
0
-0.16827191
0
-0.18575433
-2.7437116e-18
-0.2035856
0
-0.22290686
-1.1843258e-14
-0.24309834
0
-0.26397869
-1.0969967e-14
-0.28618468
0
-0.31034753
-1.0168771e-14
-0.33664239
9.7953759e-15
-0.3646363
-9.4301757e-15
-0.39376102
9.0856891e-15
-0.42387886
-8.7521545e-15
-0.45507155
0
-0.48726857
0
-0.52020479
0
-0.55393731
0
-0.58916954
0
-0.6266539
1.401205e-14
-0.66629492
0
-0.70765935
1.3878346e-18
-0.75080903
0
-0.79544786
0
-0.84199719
0
-0.8921773
-2.2430669e-14
-0.948892
-2.9440479e-05
-0.012304255
-0.00016898184
-0.025283519
-0.00039478072
-0.03870314
-0.00066382904
-0.051809139
-0.00091657824
-0.063854564
-0.0010869897
-0.074156706
-0.0011212834
-0.083130758
-0.00097480785
-0.090241569
-0.00060716456
-0.094825014
0
-0.097425569
0
-0.11052092
0
-0.1242392
7.1756764e-15
-0.14028496
-4.7416796e-18
-0.15780228
-6.6403532e-15
-0.17429927
0
-0.19101065
-2.7478414e-18
-0.20925208
0
-0.2282781
0
-0.2478098
1.0972872e-14
-0.26852682
1.0560354e-14
-0.29107457
-1.0171124e-14
-0.31567406
-9.790234e-15
-0.34203658
9.4281146e-15
-0.3697334
-9.0806126e-15
-0.39856155
0
-0.42846103
0
-0.45939973
0
-0.49126845
0
-0.52383784
2.6970176e-18
-0.55722304
0
-0.59218338
1.400634e-14
-0.62942699
0
-0.66876658
0
-0.70988358
0
-0.75281806
0
-0.79712283
0
-0.84324794
0
-0.89309695
2.1612997e-14
-0.94955586
-0.012240536
0
-8.6418031e-05
-0.025230195
-0.00027613511
-0.038710388
-0.0005373075
-0.051912459
-0.00081933068
-0.064179662
-0.0010607683
-0.074797769
-0.001206606
-0.084094936
-0.0012089275
-0.091517293
-0.0010227373
-0.096498837
-0.00062545959
-0.10014205
0
-0.10329869
0
-0.11610479
0
-0.13121464
-6.9002551e-15
-0.14790649
0
-0.16346954
0
-0.17911614
-6.1501383e-15
-0.19633925
5.9190318e-15
-0.21427946
0
-0.23254279
0
-0.25186685
0
-0.27292339
0
-0.29595888
-3.5195177e-18
-0.32075064
9.4294041e-15
-0.34697988
0
-0.37444638
-8.7418473e-15
-0.40305144
2.3016289e-18
-0.43270391
-8.1185274e-15
-0.46332992
-1.5642158e-14
-0.49485084
0
-0.52704199
-1.4527996e-14
-0.56008716
0
-0.59479099
-1.3496543e-14
-0.63181209
-1.3005826e-14
-0.67088207
0
-0.71173925
9.7326233e-19
-0.75449586
0
-0.7984472
0
-0.84414873
0
-0.89371771
0
-0.949937
-0.025172245
0
-0.012186999
2.9183578e-05
-0.00014145172
-0.038695726
-0.00037614384
-0.051984595
-0.00066367427
-0.064447003
-0.00094914953
-0.075344122
-0.0011780064
-0.084931777
-0.0013000624
-0.092630231
-0.0012669994
-0.09794038
-0.0010527766
-0.10208227
-0.00063988188
-0.10547451
0
-0.10845202
0
-0.12269493
0
-0.1385604
-6.6407384e-15
-0.15323614
-6.3934913e-15
-0.16787754
0
-0.18413578
0
-0.20106139
-1.8345181e-18
-0.21813625
-1.0971549e-14
-0.23615275
0
-0.25582382
0
-0.27741647
9.7907106e-15
-0.30071808
9.4276268e-15
-0.32549379
0
-0.35157237
8.7472552e-15
-0.37883801
8.4236456e-15
-0.40723168
0
-0.43660249
-1.8259006e-18
-0.46689882
0
-0.49804363
0
-0.52985104
-1.3996772e-14
-0.56256482
0
-0.5970371
0
-0.63385473
0
-0.67265685
-1.207781e-14
-0.71329349
1.1638729e-14
-0.75586123
0
-0.79946918
0
-0.84476331
0
-0.8940464
0
-0.95003311
-0.038658784
0
-0.02511083
8.5887543e-05
-0.012144576
5.6692993e-05
-0.00019285473
-0.052026076
-0.00046498352
-0.064654338
-0.00076952007
-0.075791231
-0.0010543304
-0.085637337
-0.0012683436
-0.093577966
-0.0013610461
-0.099183171
-0.0013033146
-0.10375506
-0.001076747
-0.10771374
-0.00065061884
-0.11005802
0
-0.11469382
0
-0.12973648
0
-0.14356713
0
-0.15726579
0
-0.17261238
-5.9213656e-15
-0.18858696
5.6988464e-15
-0.2045512
-5.4854987e-15
-0.22133997
0
-0.23971527
0
-0.25997374
3.5288209e-18
-0.28187268
0
-0.30522197
0
-0.32991596
8.7420903e-15
-0.3558286
0
-0.38293545
-8.1103473e-15
-0.41112316
-1.5631299e-14
-0.44019739
-1.6526281e-18
-0.47011672
0
-0.50087741
0
-0.53229948
1.3487264e-14
-0.56469413
0
-0.5989471
0
-0.63559131
1.0312352e-18
-0.67415405
0
-0.71458151
0
-0.7569839
0
-0.80021626
0
-0.84508791
0
-0.89412483
1.9332801e-14
-0.94987187
-0.052036119
0
-0.038602935
0.00014093221
-0.025046081
0.00016692378
-0.012113985
8.0728607e-05
-0.00023861009
-0.064800639
-0.00053953274
-0.076135441
-0.00085495464
-0.086205606
-0.001134483
-0.094359155
-0.0013264423
-0.10022556
-0.0013990008
-0.10519368
-0.0013326159
-0.1096535
-0.0010949821
-0.11265106
-0.00066135286
-0.11579393
0
-0.1213821
0
-0.13443174
0
-0.1472598
6.1531166e-15
-0.16173865
-2.5026982e-18
-0.17681955
-5.6969649e-15
-0.19174772
0
-0.20738897
-1.5209326e-18
-0.22454686
0
-0.24356553
0
-0.26415922
0
-0.28611757
0
-0.30942865
-8.7397611e-15
-0.33399843
2.5912169e-18
-0.35978699
8.109633e-15
-0.38677792
-7.811368e-15
-0.41472773
7.5291042e-15
-0.44344359
7.2545096e-15
-0.47300352
0
-0.50337801
0
-0.53442481
0
-0.56650635
0
-0.60057192
-1.2072646e-14
-0.63706114
1.16354e-14
-0.67541539
0
-0.71567326
1.080542e-14
-0.75788151
-1.0411919e-14
-0.80072361
2.0064701e-14
-0.84517586
0
-0.89395516
0
-0.94948567
-0.064883948
0
-0.052022047
0.00019255703
-0.038527625
0.00027410594
-0.024977554
0.0002376899
-0.012094642
9.9490338e-05
-0.00027703101
-0.0763739
-0.00059948034
-0.086632352
-0.00091932766
-0.094969943
-0.0011851853
-0.10106676
-0.001362471
-0.10639621
-0.0014301893
-0.11132695
-0.0013553699
-0.11492247
-0.0011136132
-0.11882632
-0.00067509835
-0.12190835
0
-0.12576661
0
-0.1378385
0
-0.15149213
-5.9187672e-15
-0.16572734
5.6968743e-15
-0.17968614
5.485053e-15
-0.1942578
1.0558587e-14
-0.21027165
-5.0847009e-15
-0.2281348
0
-0.24751288
-9.4195204e-15
-0.26814287
0
-0.29007487
0
-0.31329591
-8.4155182e-15
-0.33776732
-8.1042204e-15
-0.36351056
7.8080698e-15
-0.39036537
7.5257822e-15
-0.41801319
-7.2509628e-15
-0.44638137
6.9887919e-15
-0.47558067
0
-0.50558647
0
-0.53625302
1.2520931e-14
-0.56803985
0
-0.60192928
0
-0.63830336
0
-0.67649929
0
-0.71660108
1.0411535e-14
-0.75860589
0
-0.80100574
1.9333012e-14
-0.84503139
0
-0.8935837
-1.7948688e-14
-0.94890385
-0.076503496
0
-0.064916872
0.00023868666
-0.051983515
0.00037497541
-0.03842923
0.00039043635
-0.024905799
0.00029276322
-0.012087266
0.00011121112
-0.00030780344
-0.086914751
-0.00064421505
-0.095407136
-0.00095948912
-0.10170805
-0.0012165373
-0.10736145
-0.0013925421
-0.11273261
-0.0014548254
-0.11689784
-0.0013792582
-0.12151101
-0.0011372336
-0.12536639
-0.00068167901
-0.1256221
0
-0.12894082
0
-0.14184809
-5.9212994e-15
-0.1552787
1.623525e-18
-0.16833083
5.4836014e-15
-0.18190567
-1.0558152e-14
-0.19684873
5.0826189e-15
-0.21362677
-1.8211683e-18
-0.23187222
0
-0.25125001
0
-0.27183292
0
-0.29370025
0
-0.31685399
0
-0.34133861
0
-0.3670554
0
-0.39368152
1.7570248e-18
-0.42099627
-6.9851554e-15
-0.44903357
0
-0.47790007
0
-0.50752294
0
-0.53781935
1.2064616e-14
-0.56931326
0
-0.60305603
0
-0.63935504
0
-0.6774429
0
-0.71740886
1.0032063e-14
-0.75916111
-1.9332967e-14
-0.80110311
0
-0.84470176
0
-0.89301347
0
-0.94812247
-0.087049984
0
-0.076543711
0.00027731768
-0.06489851
0.00046527248
-0.051914267
0.00053480718
-0.038308347
0.00048091921
-0.024831154
0.00032688503
-0.012092705
0.00011408188
-0.00033056869
-0.095670442
-0.00067176037
-0.10215137
-0.00098424502
-0.10809139
-0.0012431301
-0.11386974
-0.0014168387
-0.11857447
-0.0014813108
-0.12385197
-0.0014090112
-0.12840466
-0.0011483876
-0.12944123
-0.00067741877
-0.12813266
0
-0.13273875
0
-0.14544307
0
-0.15765239
5.4847324e-15
-0.17029421
-1.3515013e-18
-0.18423543
-5.0805824e-15
-0.19999385
4.8926041e-15
-0.21718063
-1.7016646e-18
-0.23538195
0
-0.25467392
0
-0.27520812
0
-0.29703745
0
-0.32023498
0
-0.34475431
0
-0.37033954
0
-0.39670204
6.9830227e-15
-0.42371511
1.3460694e-18
-0.45145435
0
-0.47997366
0
-0.5092221
0
-0.53914074
-1.1625239e-14
-0.57035817
0
-0.60396954
1.0800842e-14
-0.6402523
5.8789538e-19
-0.67828351
-1.0031495e-14
-0.71810884
-9.6661231e-15
-0.75959475
0
-0.8010229
0
-0.84418013
0
-0.89227498
0
-0.94715883
-0.095758417
0
-0.087064983
0.00030801149
-0.076492454
0.00054062867
-0.064816118
0.00066429815
-0.051815429
0.0006597059
-0.038165622
0.00053676093
-0.024754866
0.00033475854
-0.012110929
0.0001062858
-0.00034445012
-0.10240035
-0.00068871369
-0.10859118
-0.0010055914
-0.11473629
-0.0012652284
-0.11994826
-0.0014434386
-0.12584223
-0.0015135107
-0.1310436
-0.0014227044
-0.13278637
-0.0011415979
-0.13230938
-0.00067124098
-0.13124685
0
-0.13613021
0
-0.14762073
-5.4846127e-15
-0.15939336
0
-0.17239553
-1.749862e-18
-0.18718818
0
-0.20338067
-4.7079586e-15
-0.22047984
-9.0685258e-15
-0.23854781
0
-0.25779273
0
-0.27831142
-8.0959663e-15
-0.30018628
-7.8010151e-15
-0.32345271
-2.2485494e-18
-0.34794986
7.2420865e-15
-0.37336882
0
-0.39947171
0
-0.42620613
0
-0.45364281
-6.2515356e-15
-0.48183266
0
-0.5106943
0
-0.5402486
-1.1201425e-14
-0.57118994
0
-0.60470964
1.0407667e-14
-0.64102237
-2.0059898e-14
-0.67903768
0
-0.71873887
0
-0.75988516
8.9746492e-15
-0.80078581
0
-0.84350132
0
-0.89136861
1.6054947e-14
-0.94604321
-0.10245637
0
-0.09570965
0.00033044699
-0.086957713
0.00060026221
-0.076326397
0.00077181277
-0.064670355
0.0008203335
-0.051687555
0.00073739833
-0.038001494
0.0005492383
-0.024676055
0.00031117324
-0.012141501
8.5948349e-05
-0.00035298356
-0.10886581
-0.0007035371
-0.11533369
-0.0010237528
-0.12101603
-0.0012894361
-0.12747351
-0.001474947
-0.13327567
-0.0015281442
-0.13569071
-0.001414485
-0.13598521
-0.0011312089
-0.13575943
-0.00066493412
-0.13392979
0
-0.13813613
-5.4845161e-15
-0.14917077
1.2584034e-18
-0.1612895
1.7613414e-18
-0.17517043
0
-0.19042153
4.7092127e-15
-0.20648505
-4.5321288e-15
-0.22339911
-4.3650557e-15
-0.24141027
8.4065489e-15
-0.260656
-8.0935967e-15
-0.28121886
0
-0.30318149
0
-0.32650342
0
-0.35094317
1.8974555e-18
-0.3761838
-6.7233854e-15
-0.40202451
1.3469278e-18
-0.42847712
0
-0.45563367
0
-0.48348723
0
-0.51197413
1.1196732e-14
-0.54115437
0
-0.57184239
0
-0.60528998
0
-0.64168755
9.6652771e-15
-0.67973185
0
-0.71927681
0
-0.76006078
0
-0.80038645
0
-0.84267363
0
-0.89033461
-1.5470381e-14
-0.94479612
-0.10891805
0
-0.10236479
0.00034396278
-0.095525756
0.00064373668
-0.08669891
0.00085654707
-0.076046302
0.00095279751
-0.064461288
0.00091798046
-0.051530074
0.00075576813
-0.037817079
0.00050993652
-0.024596446
0.00025093954
-0.012186122
5.1189099e-05
-0.00036052289
-0.11566293
-0.00071641075
-0.12177366
-0.0010437452
-0.12873981
-0.0013177002
-0.135095
-0.0014890617
-0.13814768
-0.0015196371
-0.13918488
-0.0014020555
-0.13974237
-0.0011206009
-0.13876041
-0.00065388007
-0.13523088
0
-0.13952966
0
-0.1508813
0
-0.16389188
1.9642638e-18
-0.17825141
4.7070791e-15
-0.1933465
-4.5330613e-15
-0.20917384
4.3643203e-15
-0.22601289
4.20111e-15
-0.24403683
0
-0.26333085
0
-0.28398199
0
-0.30604231
-7.2351713e-15
-0.32941527
6.9720999e-15
-0.35378163
6.7196118e-15
-0.37878907
0
-0.40435489
6.244248e-15
-0.43055968
0
-0.45744635
-5.8043655e-15
-0.48497365
0
-0.513069
-1.0789702e-14
-0.54189079
-1.0401678e-14
-0.57232759
-2.0053193e-14
-0.60573781
0
-0.64225858
9.3133929e-15
-0.68035712
-3.6041029e-19
-0.71974302
8.647734e-15
-0.76008871
0
-0.79985939
0
-0.84173254
1.5470855e-14
-0.8891657
0
-0.94341301
-0.11572363
0
-0.10879918
0.00035228122
-0.10212558
0.00066986751
-0.095171075
0.00091830292
-0.086289453
0.0010567812
-0.07565362
0.0010656795
-0.064188555
0.00094193778
-0.051347246
0.00070291552
-0.037611678
0.00041056337
-0.024516459
0.00014893503
-0.01224323
0
-0.00036719135
-0.1222191
-0.00073061087
-0.12963874
-0.0010665827
-0.13649683
-0.001330161
-0.14015428
-0.0014809674
-0.14190127
-0.0015065318
-0.14322024
-0.0013888741
-0.14301946
-0.0011019133
-0.14033659
-0.00063823111
-0.13593213
0
-0.14109249
0
-0.15330865
0
-0.1668223
-4.706719e-15
-0.18100873
0
-0.19582103
0
-0.21155278
1.2250328e-18
-0.22841157
-4.0459013e-15
-0.24649165
0
-0.26587384
0
-0.28664249
0
-0.30882555
0
-0.33223697
0
-0.35645387
6.4733136e-15
-0.38118899
-6.2390228e-15
-0.4065005
1.1460218e-18
-0.43248053
9.4582411e-19
-0.45910778
0
-0.48629432
0
-0.51400738
0
-0.54246532
-1.0023661e-14
-0.57267076
0
-0.60605876
0
-0.64275218
-8.9739318e-15
-0.68092928
-8.6478179e-15
-0.72007628
-8.3325067e-15
-0.76000254
-8.0284354e-15
-0.79919415
0
-0.84066578
0
-0.88789148
0
-0.9418787
-0.12234918
0
-0.11558091
0.0003596839
-0.10850681
0.00068595379
-0.10169321
0.00095545337
-0.094646896
0.001132758
-0.08573128
0.0011811751
-0.07514874
0.0010926965
-0.063854808
0.00087712248
-0.051139062
0.00056697102
-0.037384161
0.00024315055
-0.024432905
0
-0.011197419
1.1393741e-14
-0.00037455855
-0.13017074
-0.00074654272
-0.13748164
-0.001076508
-0.14170595
-0.0013231311
-0.14412896
-0.0014685575
-0.1461801
-0.0014925146
-0.14674992
-0.0013656757
-0.14484101
-0.0010754753
-0.14129257
-0.00062173586
-0.13682924
0
-0.14335974
0
-0.15608476
0
-0.16942347
0
-0.1832894
-1.2584316e-18
-0.19798118
-1.1905229e-18
-0.21373598
4.0449914e-15
-0.23066201
-3.8942961e-15
-0.24883427
0
-0.26833811
0
-0.28927205
6.9650579e-15
-0.31159434
-6.7100532e-15
-0.33496266
0
-0.35892724
0
-0.38338424
0
-0.4084918
1.0654717e-18
-0.43425854
-5.5891231e-15
-0.46061585
0
-0.48746991
0
-0.51479083
0
-0.54290368
0
-0.57288248
0
-0.60628559
-8.9734536e-15
-0.64317268
3.2744306e-19
-0.68138595
0
-0.72030099
-1.6057851e-14
-0.75974237
-7.7356852e-15
-0.79841164
1.4906061e-14
-0.83950532
0
-0.88647561
-0.0085930062
-0.93155478
-0.13033484
0
-0.1222343
0.00036639707
-0.11523619
0.00070025222
-0.10798704
0.00097827035
-0.10106931
0.0011785845
-0.093956418
0.0012659257
-0.085024303
0.0012100613
-0.074529488
0.00101642
-0.063461071
0.00070831691
-0.050902053
0.00033637658
-0.037128289
-1.0541742e-14
-0.022391089
0
-0.012017952
-1.1384157e-14
-0.0003826898
-0.13805141
-0.000753407
-0.14279958
-0.0010709927
-0.14586297
-0.0013123017
-0.14861147
-0.0014550168
-0.14993366
-0.0014676948
-0.1487938
-0.0013329495
-0.14603299
-0.0010480138
-0.14248038
-0.0006077881
-0.13843603
0
-0.14597495
0
-0.15854058
0
-0.17152983
1.2216391e-18
-0.1852494
-1.1564057e-18
-0.19996469
0
-0.2157977
3.8944066e-15
-0.23282303
-1.1004759e-18
-0.25111839
0
-0.27081317
0
-0.29194016
0
-0.31428632
0
-0.33748512
-6.2324755e-15
-0.36119302
0
-0.38542967
0
-0.41034813
0
-0.43589523
5.3868779e-15
-0.46198653
0
-0.48850386
0
-0.515446
0
-0.54321316
9.3086201e-15
-0.57299458
0
-0.60642275
0
-0.64350978
2.5091754e-19
-0.68173257
-7.1481827e-20
-0.72032443
7.7360697e-15
-0.75934801
-4.2067774e-19
-0.79749184
0
-0.83823236
-0.016780852
-0.87675783
-0.0078110053
-0.92183995
-0.13820915
0
-0.13020855
0.00037384397
-0.12187527
0.00071331955
-0.11462985
0.00099854254
-0.10724167
0.0012066657
-0.1002558
0.0013173597
-0.093103797
0.0012969838
-0.084173279
0.0011244628
-0.073796609
0.00081977291
-0.063004551
0.00042079086
-0.050625257
0
-0.034258303
0
-0.023872988
0
-0.012902285
1.1383112e-14
-0.00038614201
-0.14343498
-0.00074963062
-0.1470968