/*--------------------------------*- C++ -*----------------------------------*\
| =========                 |                                                 |
| \\      /  F ield         | OpenFOAM: The Open Source CFD Toolbox           |
|  \\    /   O peration     | Version:  v2012                                 |
|   \\  /    A nd           | Website:  www.openfoam.com                      |
|    \\/     M anipulation  |                                                 |
\*---------------------------------------------------------------------------*/
FoamFile
{
    version     2.0;
    format      ascii;
    class       volVectorField;
    location    "97.0873433266573755";
    object      U;
}
// * * * * * * * * * * * * * * * * * * * * * * * * * * * * * * * * * * * * * //

dimensions      [0 1 -1 0 0 0 0];


internalField   nonuniform List<vector> 
9200
(
(2.5685849 -0.0013053762 -7.2333282e-22)
(2.56942 -0.0039855449 -3.0120485e-24)
(2.5723356 -0.001051336 -7.3776659e-22)
(2.570647 -0.0063831573 -1.4235555e-21)
(2.5732196 -0.0033749854 -8.5337898e-22)
(2.5737136 -0.00094793555 -1.8356288e-21)
(2.5724377 -0.0088383513 -1.3274688e-21)
(2.5744994 -0.0053233228 1.2568989e-21)
(2.5746023 -0.0032092965 -1.0568556e-21)
(2.5755902 -0.00081979706 -8.9698294e-22)
(2.5745608 -0.010963347 6.0753895e-22)
(2.5763204 -0.0073653915 -1.2359464e-21)
(2.5758753 -0.00499277 7.6481949e-22)
(2.5764823 -0.0029696447 8.2852534e-22)
(2.5770607 -0.00069639255 3.2902851e-21)
(2.5770529 -0.013110615 -1.6639005e-22)
(2.5784381 -0.0090558425 7.2336563e-22)
(2.5776799 -0.0069459832 1.757639e-21)
(2.5777774 -0.0045516896 -1.9720013e-21)
(2.5779515 -0.0027411433 1.0448374e-21)
(2.5783938 -0.00056556547 1.0535808e-21)
(2.5797946 -0.014978623 -9.5630732e-22)
(2.5808986 -0.010752607 2.3043194e-21)
(2.5797542 -0.0085483358 -1.2124154e-21)
(2.5796048 -0.0063919007 1.3252704e-21)
(2.5792826 -0.0041531597 -6.6772168e-24)
(2.5792984 -0.0024683645 -1.3166995e-21)
(2.5794935 -0.00042906188 -1.2893976e-21)
(2.582775 -0.016756254 -6.6611057e-22)
(2.5835341 -0.012148381 2.3889787e-22)
(2.5821297 -0.01017514 5.5860365e-22)
(2.5816737 -0.0078977031 3.1485078e-22)
(2.581159 -0.0059155592 -2.6004183e-21)
(2.5806941 -0.0037059004 -1.0912291e-21)
(2.5804322 -0.0021415974 -1.4374357e-21)
(2.5803749 -0.00029044526 1.9847767e-23)
(2.5859456 -0.018275333 -1.5380528e-22)
(2.5863647 -0.013395978 -4.3987663e-22)
(2.5846219 -0.011501562 1.6247518e-21)
(2.5839959 -0.0094743291 -2.7299552e-21)
(2.5832662 -0.0073793677 4.1705577e-22)
(2.5826639 -0.0053768626 1.5447932e-21)
(2.5819151 -0.0031825818 2.1651772e-21)
(2.5813597 -0.0017545489 1.5853886e-21)
(2.5810302 -0.00015180377 0)
(2.5892872 -0.019690561 5.2861359e-24)
(2.5893351 -0.014409815 -9.6471783e-22)
(2.5872326 -0.012667262 8.1347887e-23)
(2.5863537 -0.010794584 1.07709e-21)
(2.5855955 -0.0089908153 1.9333273e-21)
(2.5848813 -0.0067966832 -1.1000078e-21)
(2.5840154 -0.0047228146 3.7354962e-21)
(2.5829445 -0.0025610846 1.1433305e-21)
(2.5820559 -0.0013152959 1.7723924e-21)
(2.5814465 1.8679518e-05 0)
(2.5927984 -0.020957169 5.3547048e-22)
(2.5924737 -0.015123704 -1.9260855e-21)
(2.5898751 -0.01349491 3.1764377e-22)
(2.5887112 -0.011987192 -2.7045296e-22)
(2.5879015 -0.010434387 6.8029578e-22)
(2.5873255 -0.0084593864 1.1773599e-21)
(2.5864112 -0.0060577014 -1.5207627e-21)
(2.5852002 -0.0039102336 7.3492268e-22)
(2.5837413 -0.0018430477 -2.7563501e-21)
(2.5825196 -0.00084532244 0)
(2.581599 0.00018320941 0)
(2.5964818 -0.02208182 1.0765509e-22)
(2.5958076 -0.015550097 -1.1614198e-21)
(2.5925627 -0.013980758 -7.513387e-23)
(2.5909423 -0.012864768 -2.3983533e-21)
(2.5901085 -0.011848493 1.6469831e-21)
(2.5897345 -0.010073924 2.2944836e-21)
(2.5890839 -0.007728516 -7.404715e-22)
(2.5878229 -0.0050834898 -3.362611e-21)
(2.5861558 -0.0029357832 -4.8929861e-21)
(2.5842801 -0.0010540272 1.7272864e-22)
(2.5827551 -0.00036698751 -3.6316512e-21)
(2.5815901 0.00029734278 -2.4535196e-21)
(2.6001898 -0.023174424 -1.9497939e-22)
(2.5994036 -0.015694843 1.783849e-21)
(2.5953063 -0.014029969 -1.020554e-21)
(2.5929964 -0.013411734 2.3224682e-21)
(2.5920336 -0.01307628 1.0019689e-21)
(2.5920066 -0.011816398 4.598308e-22)
(2.591773 -0.0094724461 -3.193206e-21)
(2.5908129 -0.0066621257 -3.5875901e-21)
(2.5890184 -0.0038548471 2.7586541e-21)
(2.586834 -0.0018332082 -6.4174765e-22)
(2.5845462 -0.00024154901 -4.1680831e-23)
(2.5827596 9.9777887e-05 -9.7637017e-22)
(2.5813979 0.00038477154 1.8685459e-22)
(2.6041522 -0.024318385 7.3908455e-22)
(2.6033768 -0.015591932 1.6376534e-21)
(2.5981425 -0.013543976 1.4253904e-22)
(2.5948187 -0.013438644 1.0967196e-21)
(2.5935506 -0.014084093 -2.0352063e-21)
(2.5939155 -0.013582879 3.7800038e-22)
(2.594378 -0.011516868 7.6000521e-22)
(2.5939283 -0.0084053222 -3.5884662e-21)
(2.592362 -0.0052086854 8.8721287e-22)
(2.5899102 -0.0024119386 2.869115e-21)
(2.5872058 -0.00066582192 6.1680483e-22)
(2.5845522 0.00054309091 1.3745244e-21)
(2.5825453 0.00051986311 8.07453e-21)
(2.5810655 0.00050911239 3.9939053e-21)
(2.6084065 -0.025502952 -1.0940789e-21)
(2.6077781 -0.015296828 -5.144281e-22)
(2.6012154 -0.012421025 3.1475915e-22)
(2.5963413 -0.01284232 7.3045864e-22)
(2.5945404 -0.014709968 -7.3296614e-23)
(2.5952889 -0.015380973 3.8819017e-21)
(2.5966652 -0.013816306 1.0395925e-22)
(2.5970983 -0.010586799 -3.0062257e-21)
(2.5959759 -0.0067648139 -6.9364481e-22)
(2.5935817 -0.0034075606 2.3489847e-21)
(2.5904292 -0.00084423968 4.0983949e-21)
(2.5872667 0.0004876675 1.498795e-21)
(2.5843333 0.0012579003 -1.3267484e-22)
(2.5821649 0.00087011406 2.5091468e-21)
(2.5806274 0.00061244212 -1.7313356e-21)
(2.6128632 -0.026877906 2.8978157e-23)
(2.6128083 -0.014829139 -6.2958565e-22)
(2.6046095 -0.010572792 -6.9489502e-22)
(2.5976276 -0.011440725 -6.1056798e-21)
(2.5947801 -0.014878384 -1.6481694e-22)
(2.59589 -0.017138098 3.2816573e-21)
(2.5984578 -0.016454642 -2.3832624e-21)
(2.6001178 -0.01321445 1.0100275e-21)
(2.5998396 -0.0088246314 -3.0692359e-21)
(2.5976742 -0.0045795241 5.311196e-21)
(2.5943504 -0.0013761669 3.2628076e-21)
(2.5905506 0.00073064382 -4.8213575e-21)
(2.5870304 0.0015478808 3.9426717e-21)
(2.5839258 0.0018653297 -1.3894994e-21)
(2.5816739 0.0011528351 -9.2323179e-21)
(2.5801131 0.00067350378 -1.3740009e-21)
(2.6175776 -0.028508995 1.3101703e-23)
(2.6186233 -0.014254751 -1.7271141e-21)
(2.6084532 -0.0079178493 -2.1907098e-21)
(2.5986439 -0.0090413807 -4.547738e-21)
(2.5942225 -0.014366741 -2.6627127e-21)
(2.5955681 -0.018803815 -1.3751933e-20)
(2.5994927 -0.019466954 -6.5438738e-22)
(2.6028469 -0.016444495 2.8656337e-21)
(2.603803 -0.011430351 -4.9327224e-21)
(2.6022248 -0.0062302653 2.9678922e-21)
(2.598812 -0.0020008336 7.1775133e-22)
(2.5946054 0.00071950695 -2.3421602e-22)
(2.5902983 0.0021949278 -5.511434e-21)
(2.5865458 0.0024513942 -7.6310311e-21)
(2.5833759 0.0023386436 -1.7708352e-21)
(2.5811107 0.0013606863 -2.9934734e-21)
(2.5795635 0.00070384932 3.4394356e-21)
(2.622515 -0.030513004 0)
(2.6254057 -0.013678827 2.8682311e-21)
(2.6129383 -0.0043533758 3.8321697e-21)
(2.5994406 -0.0054297974 -7.3952856e-21)
(2.5926865 -0.012983154 5.0942595e-22)
(2.5939579 -0.020277939 -3.4761995e-21)
(2.5995946 -0.022884756 6.2119397e-21)
(2.6050692 -0.020397517 -5.0516638e-21)
(2.6077917 -0.014784977 7.7682401e-22)
(2.6071518 -0.008408879 -7.355746e-22)
(2.6039123 -0.002991828 1.7267383e-21)
(2.5992606 0.00073635881 3.6991236e-22)
(2.5943426 0.002699705 -2.4171084e-21)
(2.5897251 0.0034482296 3.1036954e-21)
(2.5858825 0.0031563557 -9.3695577e-22)
(2.58274 0.0026662007 1.8744111e-22)
(2.5805115 0.0014798373 2.9615565e-21)
(2.5790108 0.00071299955 1.8269532e-21)
(2.627601 -0.032968559 0)
(2.6332933 -0.013219719 5.2294871e-21)
(2.6182415 0.00019399729 -2.0143734e-21)
(2.6000537 -0.00039857997 2.7851047e-21)
(2.5900285 -0.010493549 4.5097177e-21)
(2.5908789 -0.021456165 4.641128e-21)
(2.5984098 -0.026736737 -1.1939607e-20)
(2.6066127 -0.025204092 -6.1535021e-22)
(2.6116741 -0.019060675 1.2456196e-21)
(2.6124607 -0.01132904 -4.1606873e-21)
(2.6096309 -0.0043758354 5.3131166e-21)
(2.6046762 0.00056822495 -3.8451953e-21)
(2.5990001 0.0033691845 3.3736946e-21)
(2.5936257 0.0044084108 -3.0873724e-22)
(2.5889065 0.0044214167 1.6325935e-21)
(2.5851074 0.0036424317 1.0526824e-20)
(2.5820649 0.0028500122 9.2836528e-21)
(2.5799099 0.001518756 -7.3841001e-23)
(2.5784776 0.00070555892 -1.962554e-21)
(2.6325794 -0.035837817 3.0129985e-21)
(2.6419518 -0.012957607 -6.4441598e-21)
(2.6246672 0.0058348264 -2.3092012e-21)
(2.6005748 0.0063129822 1.3700103e-20)
(2.586089 -0.0066552683 1.2284537e-20)
(2.5860293 -0.022201939 -8.9490066e-21)
(2.5956922 -0.031074464 -2.1160775e-21)
(2.607228 -0.03100477 3.9263252e-21)
(2.61534 -0.024458446 -9.0550045e-21)
(2.6181219 -0.015180167 2.5472041e-21)
(2.6160543 -0.0063333853 8.3627912e-22)
(2.6108607 0.00023155089 1.7984724e-21)
(2.6044433 0.0040667929 3.1260844e-21)
(2.5981058 0.0056625029 1.7319112e-21)
(2.592569 0.0057356656 -3.4962272e-21)
(2.5879351 0.005081234 -2.0995578e-21)
(2.5842843 0.0039093095 -6.1657162e-22)
(2.58139 0.0029016557 1.4949899e-21)
(2.5793338 0.0014939394 6.343307e-21)
(2.5779799 0.0006840896 -4.1590601e-21)
(2.6387941 -0.038915163 -1.0521522e-21)
(2.6497666 -0.013124718 9.8588739e-22)
(2.6321041 0.012597564 -2.125808e-21)
(2.6012364 0.014931876 -1.2114217e-20)
(2.5807454 -0.0012039304 -7.3790151e-21)
(2.5790939 -0.022393318 1.5875431e-20)
(2.5911364 -0.035915693 1.7772512e-20)
(2.6066944 -0.037961955 -3.9344306e-21)
(2.6186519 -0.031198998 3.6868155e-21)
(2.6241253 -0.020192333 -2.7819983e-21)
(2.623255 -0.0090318457 3.2025937e-23)
(2.6179709 -0.00037952259 4.5719015e-21)
(2.6106922 0.0048627912 -1.9116277e-21)
(2.6032982 0.007143561 1.6137556e-21)
(2.5967231 0.0074422176 -1.7587584e-21)
(2.5913014 0.0066252806 -3.0215647e-21)
(2.5869002 0.0054263943 -2.525496e-22)
(2.5834687 0.0039733571 -5.7288774e-21)
(2.5807496 0.0028381902 -7.2330292e-21)
(2.5788038 0.0014158388 -6.3615423e-22)
(2.5775297 0.00065105921 2.6203866e-21)
(2.6437497 -0.042379545 7.0281555e-21)
(2.659793 -0.012628251 5.0460232e-21)
(2.6377236 0.020629289 -3.0230167e-21)
(2.6008836 0.025638485 1.264319e-21)
(2.5740115 0.0061448446 -2.2755537e-20)
(2.5697886 -0.021895911 1.5618787e-20)
(2.5844171 -0.041288901 -1.5948986e-20)
(2.6047839 -0.046222266 6.3091492e-23)
(2.6214733 -0.039503459 1.0436937e-20)
(2.6304522 -0.02662779 -1.3321397e-20)
(2.6313371 -0.012677276 5.6934153e-21)
(2.6261518 -0.0013639219 -7.8657735e-22)
(2.6179297 0.0057540765 6.4108628e-21)
(2.6092201 0.008981046 1.7407273e-22)
(2.6014522 0.0095289479 -5.2398858e-21)
(2.5950392 0.0086172601 5.5551356e-21)
(2.58995 0.0070718542 3.0194096e-21)
(2.5858794 0.0054800428 4.0741876e-21)
(2.5827051 0.0038610086 3.3076889e-21)
(2.5801693 0.0026792343 -4.2526149e-21)
(2.5783342 0.0012952089 -6.6031918e-21)
(2.5771369 0.00060855745 2.0045208e-21)
(2.6466597 -0.047274952 -4.5254367e-21)
(2.6724397 -0.011753502 -1.0512387e-20)
(2.6396986 0.031375738 -7.0782897e-21)
(2.5946912 0.039252525 3.1481336e-21)
(2.5640352 0.015658022 1.0014787e-20)
(2.5579157 -0.020553088 1.4386983e-23)
(2.5752335 -0.047258916 -7.3868576e-21)
(2.6012625 -0.055932489 -1.2018893e-20)
(2.6236643 -0.049595283 7.8532747e-21)
(2.6370756 -0.03474687 -9.3933492e-21)
(2.6404201 -0.017522673 -2.6571267e-21)
(2.6356099 -0.0028395891 8.4903393e-22)
(2.6263258 0.006740956 -5.1470131e-21)
(2.6160202 0.011267452 -1.0144708e-20)
(2.606737 0.012168979 -7.8193617e-22)
(2.5991798 0.011078791 3.5368284e-21)
(2.5932418 0.0091761533 3.0428162e-22)
(2.5886253 0.0071088467 4.506054e-21)
(2.5849339 0.005281239 -1.7474123e-22)
(2.5820256 0.0036038514 -2.5744307e-22)
(2.5796661 0.00244556 8.4104657e-23)
(2.5779334 0.0011415915 -1.6985353e-22)
(2.5768048 0.00055915118 -5.2172744e-21)
(2.6483999 -0.055088777 -4.3659153e-20)
(2.6946347 -0.013964203 1.7343624e-20)
(2.656896 0.043859896 2.4604804e-21)
(2.5838375 0.056511604 4.7435281e-21)
(2.5448533 0.027683607 -3.091443e-20)
(2.5419599 -0.018217294 -2.4257142e-20)
(2.5633436 -0.053877813 2.87932e-20)
(2.5959196 -0.067255095 -9.8152941e-22)
(2.6250801 -0.061676225 2.1413288e-21)
(2.6439533 -0.044832523 4.3672457e-21)
(2.6506196 -0.023837592 -1.6084596e-20)
(2.6465887 -0.0049770967 6.261102e-21)
(2.6361375 0.0078435323 -1.183809e-21)
(2.6238413 0.014113674 1.4659327e-23)
(2.6126561 0.015523621 -3.8192902e-21)
(2.6036484 0.01419967 4.3153001e-22)
(2.596758 0.011772943 -5.2958598e-22)
(2.5914913 0.0091685906 -6.697908e-21)
(2.5874121 0.0067943929 -1.6364628e-22)
(2.5841068 0.0048775704 -2.1756254e-21)
(2.5814506 0.0032361603 -5.5529424e-21)
(2.5792488 0.0021594979 2.1927253e-21)
(2.577604 0.00096147666 2.7050084e-21)
(2.5765264 0.00051144498 3.1319998e-21)
(2.6498082 -0.066331143 3.4497568e-21)
(2.7286116 -0.023659512 -1.9169428e-20)
(2.7057553 0.052256331 -1.0672633e-21)
(2.6002423 0.07646085 3.5100224e-21)
(2.5201734 0.042092104 4.4182036e-20)
(2.5170567 -0.0152628 -3.0196084e-20)
(2.5480799 -0.061160371 1.900799e-20)
(2.5885931 -0.080337363 1.453713e-20)
(2.6255892 -0.075931099 -6.3265476e-21)
(2.6510169 -0.057140914 9.0292827e-21)
(2.662045 -0.031940992 -5.3291186e-21)
(2.659359 -0.0079695331 6.641616e-21)
(2.6476623 0.0090441035 2.456917e-21)
(2.6329063 0.01768058 4.8566303e-22)
(2.6192753 0.019785658 8.8516112e-21)
(2.6084403 0.018171686 5.128722e-21)
(2.6003685 0.015042211 -7.5051968e-22)
(2.5944207 0.011687898 -2.8024475e-21)
(2.5899075 0.0086821321 -4.3580644e-21)
(2.5863679 0.006199055 6.5399811e-22)
(2.5834244 0.0043198563 -7.0198682e-21)
(2.5809902 0.0027931171 9.7029583e-24)
(2.5789177 0.0018463587 1.956503e-23)
(2.5773427 0.00077157817 2.5445432e-21)
(2.576309 0.00047141717 2.5619069e-21)
(2.6506036 -0.081080495 2.5599347e-20)
(2.7704812 -0.043155987 -2.7423443e-20)
(2.7846505 0.051583105 -3.5251092e-21)
(2.6707349 0.094705814 -3.499347e-20)
(2.5253064 0.058676183 1.2713552e-20)
(2.4872412 -0.01275496 4.0195443e-20)
(2.5269749 -0.06971516 1.6673538e-20)
(2.5791504 -0.095259756 2.4598078e-22)
(2.6250731 -0.092491982 5.4047513e-21)
(2.6581759 -0.071910879 3.7091891e-21)
(2.674777 -0.042155947 9.5494806e-22)
(2.6742175 -0.012067806 -4.473046e-21)
(2.6612676 0.010325577 1.0550523e-20)
(2.643474 0.022127879 -1.3258702e-21)
(2.6267074 0.025221201 -1.8221688e-21)
(2.6135172 0.023215933 3.7609134e-21)
(2.6039923 0.019166454 1.5270932e-21)
(2.5972413 0.014817703 2.8673003e-22)
(2.5923362 0.01095793 9.0668766e-22)
(2.5885669 0.0078211939 -8.5132361e-22)
(2.585526 0.0053970415 -1.2833677e-21)
(2.5828988 0.0036589148 5.88062e-22)
(2.580646 0.0023098999 1.122023e-21)
(2.5786677 0.0015330005 -1.4300046e-22)
(2.5771431 0.00061624579 2.9862114e-21)
(2.5761335 0.00044026536 2.2642467e-21)
(2.6496533 -0.099040971 -4.8342287e-20)
(2.8141243 -0.071464973 8.3001105e-21)
(2.8791839 0.039389673 -2.3664354e-20)
(2.7837833 0.10761134 3.4474626e-20)
(2.5910501 0.078612637 -1.1227313e-20)
(2.4799607 -0.0088344139 9.4100049e-20)
(2.4995431 -0.080769805 -7.4879063e-20)
(2.5670118 -0.11236659 -1.2490625e-20)
(2.6234823 -0.11143717 7.4819116e-21)
(2.6652963 -0.089318876 -4.3394132e-21)
(2.6888663 -0.054840962 -5.382298e-21)
(2.691473 -0.017538147 4.7671186e-21)
(2.6773756 0.01164097 -9.5475694e-22)
(2.6558786 0.027662862 -2.9165891e-21)
(2.6350838 0.032123581 4.2390309e-21)
(2.6188508 0.029632988 -4.6016834e-22)
(2.6074944 0.024341178 5.029437e-21)
(2.5998173 0.018702784 3.1284742e-21)
(2.5945023 0.013734702 -2.3065565e-21)
(2.5906043 0.0097396991 2.4642792e-22)
(2.5875086 0.0066922361 8.2402953e-21)
(2.584899 0.0044606994 -2.5248022e-21)
(2.5825307 0.0029441465 7.7315626e-21)
(2.580414 0.0018211489 -2.7741439e-21)
(2.5784946 0.001241565 -4.9312254e-21)
(2.5769969 0.00048960339 6.5074299e-21)
(2.5759886 0.00041687376 -3.8725248e-22)
(2.6460573 -0.11933856 1.3345173e-20)
(2.853911 -0.1073212 1.2687733e-19)
(2.9755782 0.018491021 2.313476e-20)
(2.9144035 0.11668377 2.6702327e-20)
(2.7017046 0.10340791 8.3318058e-20)
(2.5084875 0.0012597388 3.3539148e-20)
(2.4770654 -0.092363078 -6.3815367e-20)
(2.5512022 -0.13241366 -1.3177213e-22)
(2.6208275 -0.13283245 1.0688332e-20)
(2.6722157 -0.10949363 5.4396726e-21)
(2.7042711 -0.070345968 -2.0842201e-21)
(2.7114443 -0.024765855 1.2075897e-20)
(2.6964681 0.012956414 -2.2380143e-21)
(2.6705154 0.03450369 -2.2669761e-22)
(2.6445738 0.040870856 -6.7779342e-23)
(2.6243945 0.037756651 1.0798016e-21)
(2.6107205 0.030827461 -2.2665116e-21)
(2.6019502 0.023476089 -1.7658836e-21)
(2.5962442 0.017107286 4.4447746e-21)
(2.5922779 0.012029336 2.4827476e-22)
(2.5892674 0.0081870769 2.108067e-21)
(2.586743 0.0053952646 -1.3062285e-21)
(2.5844846 0.0034574851 1.0144471e-21)
(2.5823125 0.0022228317 -5.3327519e-21)
(2.5802857 0.0013590705 -4.4818347e-21)
(2.578391 0.00098553802 -2.9174929e-21)
(2.5768954 0.00038737176 2.3630856e-21)
(2.5758669 0.00040100138 2.6089414e-21)
(2.6391066 -0.14101076 2.1642326e-20)
(2.8861361 -0.14833774 4.9298418e-20)
(3.0645084 -0.0098349426 2.5412839e-20)
(3.0451985 0.12058655 -9.4002019e-21)
(2.8310365 0.13220153 -4.9038793e-20)
(2.5792606 0.021901835 -1.9305521e-19)
(2.4814207 -0.098760687 7.0788943e-20)
(2.5302231 -0.15547108 -2.8372393e-20)
(2.6169241 -0.15679774 -1.3311746e-20)
(2.6787906 -0.13245582 1.0430566e-20)
(2.7208908 -0.089013078 5.5568454e-21)
(2.7343796 -0.034159237 6.4646589e-21)
(2.7190569 0.014089413 -6.5481861e-23)
(2.6878493 0.042894073 0)
(2.6553786 0.051890449 -5.6529376e-21)
(2.630088 0.048014292 -5.931109e-21)
(2.6134642 0.038898345 1.7283924e-21)
(2.6034074 0.029309346 -2.7302922e-21)
(2.5973401 0.021132888 -6.2816432e-21)
(2.5934265 0.014737916 2.5584451e-21)
(2.5906064 0.0099239184 1.6158003e-21)
(2.5883267 0.0064373564 -3.2386167e-21)
(2.5862612 0.0040200746 -4.9024721e-21)
(2.5842705 0.0024486398 2.1072362e-21)
(2.5822309 0.0015385164 -7.6752647e-21)
(2.5802482 0.00095099022 3.234241e-21)
(2.5783434 0.00077517979 5.1450132e-21)
(2.5768277 0.00032131013 -7.1599755e-21)
(2.5757602 0.00039489405 -5.712415e-22)
(2.6290771 -0.16369946 -3.3672538e-21)
(2.9089838 -0.19330528 -1.5321596e-19)
(3.1397949 -0.043738554 -1.1558659e-19)
(3.1664777 0.12018105 2.0741145e-19)
(2.9630616 0.16340984 8.2428351e-20)
(2.6726698 0.053495985 -2.3476227e-20)
(2.5043819 -0.095192769 3.1599178e-20)
(2.512382 -0.17792374 -9.8270236e-21)
(2.611447 -0.18363645 -1.7045031e-20)
(2.6848704 -0.15813065 -5.0383963e-21)
(2.7385277 -0.11115657 -5.4922117e-22)
(2.7605369 -0.046158576 -2.9005897e-21)
(2.7457155 0.014900634 7.6421402e-21)
(2.7083948 0.053064033 2.9610485e-21)
(2.6677369 0.065690251 2.3302495e-21)
(2.6358483 0.060895256 -8.5906832e-22)
(2.6154629 0.048895656 0)
(2.6038899 0.036349727 7.9813351e-22)
(2.5975379 0.025878979 -4.0439409e-21)
(2.5938415 0.017854495 -3.7554304e-21)
(2.5913831 0.01191681 6.6280308e-22)
(2.5894674 0.0076059202 4.2155002e-21)
(2.5877587 0.0046064586 4.1899779e-22)
(2.5860425 0.0026448728 1.1480346e-21)
(2.5842373 0.0014883649 1.3312862e-21)
(2.5822687 0.00092807328 5.6222236e-21)
(2.5802842 0.00061964672 -4.3711333e-21)
(2.5783371 0.00062399311 7.3826279e-21)
(2.5767814 0.00028852259 -5.8419431e-21)
(2.5756624 0.00039933538 -7.8277574e-21)
(2.6126449 -0.18783798 -3.0211601e-20)
(2.9247946 -0.23948541 -5.9426978e-20)
(3.1992101 -0.082413983 4.4470651e-20)
(3.2727325 0.11557743 -1.3877488e-19)
(3.0895266 0.1950471 -6.874651e-20)
(2.7762248 0.09319007 1.1247636e-19)
(2.5459393 -0.080395536 -6.0008042e-21)
(2.5081632 -0.19532955 8.3551216e-20)
(2.6015691 -0.2132034 -3.4303682e-20)
(2.6900526 -0.18632083 -7.1716635e-21)
(2.756819 -0.13698694 -1.5900198e-20)
(2.7900939 -0.061390209 -1.5563638e-20)
(2.7770074 0.01527971 1.3147911e-20)
(2.7327745 0.065279217 -1.4974385e-22)
(2.6819306 0.082834675 1.8443453e-21)
(2.6415662 0.076989221 -2.8828712e-21)
(2.6163817 0.061193157 -7.2819611e-21)
(2.6030268 0.044768851 -1.0112006e-21)
(2.5965262 0.031351726 -1.0376702e-21)
(2.5933008 0.021356587 1.726181e-21)
(2.5914264 0.014107365 -1.4293588e-21)
(2.5900493 0.0088984977 -1.4759811e-21)
(2.5888092 0.0052221223 2.0024058e-21)
(2.5875267 0.0027887728 3.0042439e-21)
(2.5860581 0.0013352838 2.4170361e-21)
(2.5843612 0.00062243941 5.4005615e-21)
(2.5824047 0.00042010188 9.8495166e-21)
(2.5803751 0.00038220961 7.217766e-22)
(2.578356 0.00054649579 1.8210599e-21)
(2.5767425 0.00027969804 -9.9457255e-24)
(2.5755628 0.00041475486 0)
(2.5894243 -0.21449529 -5.6386925e-20)
(2.9276815 -0.29104955 5.6298236e-20)
(3.2457349 -0.12184704 4.9310013e-21)
(3.3613141 0.10716752 -1.3888636e-19)
(3.2065304 0.22583884 -2.3956518e-19)
(2.8821978 0.13815754 5.5401056e-21)
(2.6048429 -0.05545079 -4.3854163e-20)
(2.5191453 -0.20520787 5.8070279e-20)
(2.5907701 -0.24375983 -2.5161831e-20)
(2.6939719 -0.21715615 9.7902411e-21)
(2.7754095 -0.16662942 -1.3443871e-20)
(2.8230717 -0.080437047 -1.4965296e-20)
(2.8135029 0.014787306 5.4020665e-21)
(2.7615655 0.079786797 7.0532151e-21)
(2.6982731 0.10396289 4.3727766e-21)
(2.6471039 0.096969536 2.8378251e-21)
(2.6158033 0.076230933 2.5209962e-21)
(2.6003584 0.054717067 -4.5519013e-22)
(2.5939324 0.037538808 6.7990862e-22)
(2.5915459 0.025133524 5.1064956e-21)
(2.5905761 0.016414921 7.5597178e-22)
(2.589949 0.01023545 -3.5064457e-21)
(2.5893224 0.0058644046 -3.9397766e-21)
(2.5885682 0.0028818572 -3.8764234e-21)
(2.5875896 0.0010593875 2.074628e-21)
(2.5862759 0.0001454664 1.1085855e-21)
(2.5846183 -0.00011178285 2.6962438e-21)
(2.5826173 3.7218394e-05 -3.1576724e-22)
(2.580504 0.00025037658 1.0120435e-20)
(2.5783828 0.00055133109 -4.1037089e-21)
(2.5766983 0.00033822339 0)
(2.5754487 0.00044147089 -2.717032e-21)
(2.5591356 -0.24183866 9.1267027e-20)
(2.9161275 -0.34905929 2.3309108e-20)
(3.2759458 -0.16806186 -8.018211e-20)
(3.4322792 0.096421065 -2.9934694e-19)
(3.3127956 0.25381564 2.1472195e-19)
(2.987039 0.1861539 8.6923531e-20)
(2.6712911 -0.022284631 4.1225858e-21)
(2.5391905 -0.20655176 -2.9429535e-20)
(2.582822 -0.27228065 4.6133025e-20)
(2.6961391 -0.25119394 -1.8740751e-20)
(2.7943044 -0.20049404 0)
(2.8598208 -0.10415742 -2.0717758e-21)
(2.856159 0.013109097 -4.0297874e-21)
(2.7955423 0.096822817 9.2742659e-21)
(2.7170479 0.12975906 1.7595187e-21)
(2.6522748 0.12161581 6.0254794e-22)
(2.6132147 0.094491779 2.5188835e-20)
(2.5953287 0.066347458 4.423183e-21)
(2.5893123 0.04435889 4.8434646e-21)
(2.5882846 0.029026698 -6.0106473e-22)
(2.5886655 0.018657222 -5.3867742e-21)
(2.5890799 0.01151586 -2.8873762e-21)
(2.5892205 0.006457734 1.3247175e-22)
(2.5890956 0.0029332923 -2.1416301e-22)
(2.5886842 0.000665386 -8.6111084e-22)
(2.587911 -0.00052088931 -2.2943751e-21)
(2.5866698 -0.00087895394 -1.2299276e-21)
(2.5849848 -0.00068342474 -8.4915577e-21)
(2.5828868 -0.00020369231 -4.7279621e-21)
(2.5806549 0.00023098025 -4.2504949e-21)
(2.578407 0.00063761309 -2.0885025e-21)
(2.576639 0.00047137901 -5.3334646e-21)
(2.5753126 0.00048664864 2.0845214e-22)
(2.5214304 -0.26905124 1.1721918e-19)
(2.8908559 -0.40937846 -3.6947582e-21)
(3.2845772 -0.22395583 -3.2987705e-21)
(3.4849166 0.076064453 -6.4377962e-19)
(3.407171 0.27855714 6.7377307e-20)
(3.0888599 0.23494627 1.1628851e-19)
(2.741549 0.017401613 3.8370499e-20)
(2.567663 -0.19909944 -3.3869922e-20)
(2.5788234 -0.29735213 2.4914114e-20)
(2.6970378 -0.28712125 -6.4007795e-21)
(2.8136222 -0.23826757 1.3569742e-21)
(2.900089 -0.13343479 1.2953044e-19)
(2.9059133 0.0094709214 -3.3613847e-20)
(2.8365602 0.11640277 5.9079322e-21)
(2.7389792 0.16094494 1.1341942e-20)
(2.6568061 0.15179302 -1.1481064e-20)
(2.6079906 0.11652147 -1.6409813e-20)
(2.5872736 0.079781337 8.0566612e-21)
(2.58215 0.05168081 5.0145699e-21)
(2.5831869 0.032779991 -8.3066759e-21)
(2.5855286 0.020590612 -8.7471794e-22)
(2.5873802 0.012537002 1.6879624e-21)
(2.5884842 0.0069160411 2.0590825e-21)
(2.5890623 0.0028907397 1.7353762e-21)
(2.5892772 0.0001787791 1.2550107e-21)
(2.5891089 -0.0013682609 1.6074717e-22)
(2.588454 -0.001902582 -2.575218e-21)
(2.5872096 -0.0017057006 -2.6326367e-21)
(2.5854326 -0.0010737238 -2.2313805e-21)
(2.5831922 -0.00029365589 2.0623774e-21)
(2.5808121 0.00032581124 2.7773493e-22)
(2.5784223 0.00079850735 -2.668365e-21)
(2.5765573 0.00063075663 -8.3826461e-21)
(2.5751496 0.00054880323 -3.0059692e-22)
(2.476386 -0.29553485 5.1892792e-20)
(2.8516145 -0.47132623 2.2393205e-20)
(3.2730297 -0.2837728 -3.2515047e-19)
(3.5275207 0.043009312 4.0975488e-19)
(3.4919532 0.30025578 -2.996183e-19)
(3.1862723 0.28212533 -2.4036201e-19)
(2.8151754 0.062296847 -2.7227678e-20)
(2.6001207 -0.18496668 -3.0943473e-21)
(2.5811104 -0.31739383 2.9831612e-20)
(2.6957693 -0.32324674 1.7316327e-21)
(2.8278206 -0.27758958 4.7403658e-22)
(2.937664 -0.16576462 -8.3897987e-20)
(2.9589005 0.003971821 -2.881388e-20)
(2.8844949 0.13829645 -2.8600166e-20)
(2.7661993 0.19805121 -9.0248176e-21)
(2.6608132 0.18843344 -1.2012058e-20)
(2.5993612 0.14289441 -1.9012207e-21)
(2.5754207 0.095118298 -3.194286e-21)
(2.5718573 0.05928853 -6.7623e-21)
(2.5758914 0.036060706 -4.0071048e-21)
(2.5809997 0.021864265 3.0907829e-21)
(2.5848229 0.013036025 7.8712486e-21)
(2.5871477 0.0070634351 2.4379358e-21)
(2.5884998 0.0027104892 1.6639445e-21)
(2.5893391 -0.00041724301 -1.0275156e-22)
(2.5898037 -0.0023519217 -6.0127298e-22)
(2.5897999 -0.0031735116 -1.6069141e-21)
(2.5891821 -0.0030513057 -1.1367523e-21)
(2.5878628 -0.0023119667 1.576595e-21)
(2.5859358 -0.0012723946 -6.7738345e-22)
(2.5835145 -0.00023114972 -5.2912651e-22)
(2.5809607 0.00053138702 6.9610437e-21)
(2.5784189 0.001028256 5.727267e-21)
(2.5764479 0.00082559497 6.0474717e-21)
(2.5749555 0.00062073459 3.6847581e-21)
(2.4243215 -0.32069049 -4.6220754e-20)
(2.7991048 -0.53441195 2.2374972e-20)
(3.2457373 -0.3480149 1.4150455e-19)
(3.5526331 0.0054346234 1.5107591e-19)
(3.5696227 0.31465856 1.974091e-19)
(3.2846948 0.33264449 -2.4352349e-19)
(2.8912519 0.10725821 -1.1529395e-19)
(2.6360116 -0.16327798 0)
(2.5905496 -0.33224311 -2.2067802e-21)
(2.6919654 -0.35697074 6.9618361e-22)
(2.8335496 -0.31557049 -2.6713575e-21)
(2.958548 -0.19905707 -2.571108e-19)
(2.9957121 -0.00018155622 -6.1778585e-20)
(2.9287037 0.16445906 -6.6099616e-20)
(2.7958494 0.24184495 -4.4008983e-22)
(2.665591 0.23264148 6.3840202e-21)
(2.586608 0.17420375 1.1886441e-20)
(2.5588763 0.11238803 -2.6430559e-20)
(2.5577905 0.066891391 -1.108545e-20)
(2.56601 0.038434596 -3.2889964e-21)
(2.57492 0.022043771 6.2262307e-21)
(2.5814178 0.01264805 -3.2333969e-22)
(2.5853099 0.0066775805 -1.0601869e-21)
(2.5875117 0.0022796529 -9.3476033e-22)
(2.5889226 -0.0011087752 -1.2299466e-21)
(2.5899644 -0.0034530631 -1.0860159e-21)
(2.5906305 -0.0046286436 9.0066574e-22)
(2.5907205 -0.0047151353 1.1118563e-21)
(2.5900644 -0.0039400976 -3.2567602e-21)
(2.5886014 -0.0026832215 2.6874681e-21)
(2.5864723 -0.0012763377 2.455281e-21)
(2.5838374 -2.0878297e-05 -1.9937371e-21)
(2.5810892 0.0008400909 -2.2492504e-22)
(2.5783871 0.0013215493 1.4636155e-20)
(2.5763063 0.0010538798 8.8624413e-21)
(2.5747276 0.0006932195 2.8652869e-21)
(2.365584 -0.34405449 3.8178964e-20)
(2.7351603 -0.59784323 -7.8915947e-21)
(3.2035725 -0.41630399 2.4287664e-19)
(3.5578168 -0.039246266 3.2978599e-19)
(3.626898 0.32035731 -1.1871314e-19)
(3.3937571 0.38622355 5.7739023e-19)
(2.9719418 0.16516017 -2.703089e-21)
(2.672537 -0.14123733 -1.4746393e-21)
(2.6017892 -0.34030474 -2.8925928e-21)
(2.6857822 -0.38785313 -1.4463845e-21)
(2.8321565 -0.35121258 3.2338562e-21)
(2.9634512 -0.22848989 9.477508e-20)
(3.0056232 -0.00097917 6.1659576e-20)
(2.9563527 0.20017326 1.2558391e-19)
(2.8060988 0.29465711 2.4604973e-20)
(2.6668578 0.28608973 1.3032787e-20)
(2.5695908 0.21130942 -8.931756e-22)
(2.5366344 0.1315509 1.8286833e-21)
(2.5392626 0.074084728 -3.7404774e-21)
(2.5531511 0.039387663 3.8481463e-21)
(2.5671387 0.020597683 -6.7078572e-22)
(2.5772163 0.010927406 -1.4292157e-21)
(2.5831378 0.0054517724 -1.0779663e-23)
(2.5862867 0.0014619821 6.6631017e-22)
(2.5881621 -0.0019270658 -5.1994556e-22)
(2.589636 -0.004600693 6.4363725e-22)
(2.5908932 -0.0062205711 1.0605397e-21)
(2.5917259 -0.0066243019 5.1591116e-22)
(2.5918415 -0.0059648125 -2.3240848e-22)
(2.59107 -0.0045514602 2.2867204e-21)
(2.5893981 -0.0028142185 -3.26952e-21)
(2.5870209 -0.001089519 5.4163676e-21)
(2.5841449 0.00032859299 -5.0685027e-22)
(2.5811879 0.0012423626 -5.4641289e-21)
(2.578321 0.0016705472 -1.0050005e-20)
(2.5761289 0.001310998 3.6194031e-23)
(2.5744645 0.0007711922 -7.5741549e-21)
(2.300915 -0.36544755 -7.6747586e-20)
(2.6609517 -0.66148721 1.4712905e-20)
(3.1476195 -0.48864469 -1.3130014e-19)
(3.5503527 -0.090000262 1.6188644e-19)
(3.6576887 0.31701979 -3.2422143e-19)
(3.497724 0.43575697 1.1181978e-19)
(3.0670352 0.23748112 1.6266645e-19)
(2.7139884 -0.10259625 -8.7687461e-21)
(2.6138588 -0.34662229 -1.2781831e-21)
(2.6767403 -0.41309033 -1.5166694e-21)
(2.8233946 -0.38283462 3.3836093e-20)
(2.9572667 -0.25534594 2.2869866e-19)
(3.0050564 0.0036415402 1.010074e-19)
(2.9557392 0.24856859 -1.6507295e-20)
(2.7749607 0.36088769 -1.7916127e-21)
(2.641711 0.34926883 -8.8447612e-22)
(2.5456365 0.25556392 -5.3240186e-21)
(2.5077757 0.15257568 3.1252482e-20)
(2.5155615 0.080371264 5.9232757e-22)
(2.5369369 0.038308067 1.1579021e-20)
(2.5575313 0.016929644 -5.4502032e-22)
(2.5723015 0.007342442 3.7554448e-21)
(2.5808699 0.0030078025 -2.4587515e-21)
(2.5851085 6.4187438e-05 2.3071751e-21)
(2.5872905 -0.0028942816 -2.8074924e-21)
(2.5889463 -0.0057375322 1.6372952e-21)
(2.590605 -0.0078284674 -1.216824e-22)
(2.5921135 -0.008713586 -3.4272701e-22)
(2.5930704 -0.0083125591 -3.3576182e-22)
(2.5931335 -0.0069011014 -7.227266e-22)
(2.5921684 -0.0048765365 3.2031591e-21)
(2.5902268 -0.0027074769 -3.1367857e-21)
(2.5875621 -0.00072138367 -3.8437123e-21)
(2.5844239 0.00080583877 -2.443388e-21)
(2.5812493 0.0017270072 -2.8132188e-21)
(2.5782165 0.0020664921 -1.2427952e-20)
(2.5759135 0.0015905236 0)
(2.5741674 0.0008536245 4.4073284e-22)
(2.2317677 -0.38407122 -1.0297041e-19)
(2.5768006 -0.72537232 -1.9898977e-20)
(3.081443 -0.56434841 2.948648e-19)
(3.5269564 -0.14658927 3.6933033e-19)
(3.6728136 0.30610729 5.5634062e-19)
(3.585952 0.47923744 -1.2478872e-19)
(3.1658004 0.31258283 6.7986353e-20)
(2.7653767 -0.045994201 1.3878245e-20)