/*--------------------------------*- C++ -*----------------------------------*\
| =========                 |                                                 |
| \\      /  F ield         | OpenFOAM: The Open Source CFD Toolbox           |
|  \\    /   O peration     | Version:  v2012                                 |
|   \\  /    A nd           | Website:  www.openfoam.com                      |
|    \\/     M anipulation  |                                                 |
\*---------------------------------------------------------------------------*/
FoamFile
{
    version     2.0;
    format      ascii;
    class       surfaceVectorField;
    location    "97.0873433266573755";
    object      Uf;
}
// * * * * * * * * * * * * * * * * * * * * * * * * * * * * * * * * * * * * * //

dimensions      [0 1 -1 0 0 0 0];


internalField   nonuniform List<vector> 
18180
(
(2.5690164 -0.0026882256 -3.5110113e-22)
(2.5708483 -0.001175957 -7.3068592e-22)
(2.5700541 -0.0052290075 -7.3706733e-22)
(2.5717112 -0.0036745977 -4.3621594e-22)
(2.5727924 -0.0022542499 -7.9751006e-22)
(2.5728669 -0.00099864046 -1.2971298e-21)
(2.5715724 -0.0076498389 -1.3739041e-21)
(2.572977 -0.0058433718 -5.8006004e-23)
(2.5738809 -0.0043821976 2.3710219e-22)
(2.5737494 -0.0032904868 -9.5327072e-22)
(2.5741728 -0.0021271602 -1.4331909e-21)
(2.5747007 -0.00088265065 -1.3573714e-21)
(2.5735348 -0.0099355332 -3.2759264e-22)
(2.5747909 -0.0080881212 -1.2808416e-21)
(2.5754404 -0.006377235 -3.1255834e-23)
(2.5750212 -0.0051547753 1.0061765e-21)
(2.5752601 -0.0041238123 -1.1550464e-22)
(2.5755904 -0.0030872079 -9.6218143e-23)
(2.5760512 -0.0019491041 -5.3111762e-24)
(2.5763182 -0.0007569152 1.2363254e-21)
(2.5758485 -0.012078195 2.0762886e-22)
(2.5769194 -0.0099917436 6.6655013e-22)
(2.5774147 -0.0082353304 -2.2350137e-22)
(2.5768279 -0.0071515211 2.8936735e-22)
(2.5768078 -0.0060023572 1.2778535e-21)
(2.5768742 -0.0047680575 -6.2827891e-22)
(2.5771515 -0.0037713184 -6.1865215e-22)
(2.5772079 -0.0028531993 9.3973863e-22)
(2.577521 -0.0017772195 2.1299285e-21)
(2.5777379 -0.00062973109 2.1506267e-21)
(2.5784696 -0.014076113 -5.7456099e-22)
(2.5794046 -0.011909486 1.1035276e-21)
(2.5797095 -0.0099392756 1.5402953e-21)
(2.5789182 -0.0087970389 -2.6299293e-22)
(2.5787518 -0.0077657398 2.228952e-22)
(2.5786887 -0.0066636957 1.5373332e-21)
(2.5787217 -0.0055032364 -2.6814552e-22)
(2.5785189 -0.0043485957 -9.7060582e-22)
(2.5786393 -0.0034471573 5.0146394e-22)
(2.5786348 -0.0026021499 -1.5832103e-22)
(2.5788613 -0.0015764167 -1.7128521e-22)
(2.5789501 -0.00049601067 -1.4025349e-22)
(2.5813346 -0.015901232 -8.0635503e-22)
(2.582096 -0.013536879 -3.4734141e-22)
(2.5822604 -0.011474136 1.2370525e-21)
(2.5813311 -0.010458116 1.4147853e-21)
(2.5809817 -0.0093944091 -2.9726556e-22)
(2.5807571 -0.0082168488 -4.3552076e-22)
(2.5806739 -0.0071553437 8.0314362e-22)
(2.5803671 -0.0061491403 -6.7501785e-22)
(2.5802523 -0.00506449 -1.3469909e-21)
(2.5799974 -0.0039252574 -5.592991e-22)
(2.5800196 -0.0030786796 -1.2001867e-21)
(2.5798705 -0.0023018582 -1.377977e-21)
(2.5799786 -0.0013427056 -1.3658979e-21)
(2.579944 -0.00035843191 -6.2228736e-22)
(2.5844133 -0.017546024 -4.0138854e-22)
(2.5850007 -0.015044426 -5.6368324e-22)
(2.5849967 -0.012811179 -1.1184562e-22)
(2.5838919 -0.011818522 9.4508007e-22)
(2.5834175 -0.010858866 1.1095195e-21)
(2.5831002 -0.0098180728 -1.1159851e-21)
(2.5828737 -0.0087126787 -1.2585227e-21)
(2.5824498 -0.00763352 3.6692912e-22)
(2.5822479 -0.0066507301 -1.0411514e-21)
(2.5819185 -0.0056410553 -4.8751518e-22)
(2.581712 -0.0045700217 2.7093896e-22)
(2.58131 -0.003439237 5.6805159e-22)
(2.5811985 -0.0026477496 4.2423483e-22)
(2.5809039 -0.0019443797 1.0281429e-22)
(2.5808838 -0.0010736408 8.2885881e-22)
(2.580709 -0.00021980296 9.7312601e-24)
(2.5876723 -0.019021366 -7.1598106e-23)
(2.588087 -0.016306055 -5.6699055e-22)
(2.5878996 -0.013933751 -7.1107825e-22)
(2.5866144 -0.013024369 -1.7427329e-22)
(2.5859709 -0.012114914 8.2722224e-22)
(2.5855154 -0.011141332 1.3450133e-21)
(2.5852143 -0.010146582 -7.6270791e-22)
(2.5847677 -0.0092278581 -3.4883081e-22)
(2.5844699 -0.0082062219 1.2005793e-21)
(2.5840774 -0.0070824333 -3.547202e-22)
(2.5838098 -0.006084197 1.7809697e-22)
(2.5833443 -0.005043577 2.6610614e-21)
(2.5830004 -0.0039795385 2.976644e-21)
(2.5824385 -0.0028659009 1.6444017e-21)
(2.5821787 -0.0021406485 1.3569523e-21)
(2.5817174 -0.0015307381 1.6806735e-21)
(2.5815602 -0.00077347324 9.1590481e-22)
(2.5812395 -6.4936882e-05 0)
(2.5911016 -0.020354835 2.7924881e-22)
(2.591364 -0.017363922 -9.7882671e-22)
(2.5909569 -0.01479778 -1.4614876e-21)
(2.5894166 -0.013943308 -3.1124486e-22)
(2.5885981 -0.013104862 2.0345003e-22)
(2.5879836 -0.01232071 -9.7921139e-23)
(2.5875719 -0.011410775 3.8076384e-22)
(2.5870882 -0.010610912 8.716116e-22)
(2.5867871 -0.0097170289 1.2858334e-21)
(2.5864587 -0.008719974 1.5481155e-21)
(2.5861444 -0.0076447178 7.6813562e-23)
(2.5856495 -0.0064201048 -1.3131952e-21)
(2.5852534 -0.0053835292 1.0193244e-21)
(2.5846173 -0.0043087639 2.2063895e-21)
(2.5841102 -0.0032601197 9.3228421e-22)
(2.583352 -0.0021952211 -8.4370138e-22)
(2.5829268 -0.0015622899 -5.678684e-22)
(2.5822965 -0.0010758369 8.6930911e-22)
(2.582001 -0.00044288289 0)
(2.5815319 0.00010250681 1.557822e-25)
(2.5947018 -0.021557635 3.1440394e-22)
(2.594824 -0.018202396 -3.2917825e-22)
(2.5941965 -0.015376319 -1.530957e-21)
(2.5923175 -0.014540962 -9.8285126e-22)
(2.5912639 -0.013767452 1.1468171e-22)
(2.5903975 -0.013173754 -1.0663872e-21)
(2.5898641 -0.01244057 -1.3700184e-21)
(2.589354 -0.011916341 7.0662927e-22)
(2.5890419 -0.011153289 1.1798226e-21)
(2.5888076 -0.010250629 1.5028383e-21)
(2.5885703 -0.009265935 1.7546279e-21)
(2.5882057 -0.0080869192 2.0010794e-22)
(2.5877923 -0.0069070446 -1.1175481e-21)
(2.5871275 -0.0055612837 -2.4592766e-21)
(2.5865555 -0.004487014 -1.3824846e-21)
(2.5856888 -0.0034137158 -2.1327241e-21)
(2.584989 -0.0024109058 -3.8604673e-21)
(2.5840192 -0.0014410248 -1.2638966e-21)
(2.5834293 -0.00093240755 8.9258912e-23)
(2.5826427 -0.00060160637 -1.8503927e-21)
(2.5821964 -0.00011332636 -1.8767029e-21)
(2.581604 0.00024135677 -1.2498943e-21)
(2.5983979 -0.022669779 -4.8727029e-23)
(2.5985192 -0.018827739 9.6176907e-22)
(2.5976658 -0.015673139 3.6050568e-22)
(2.5953492 -0.014775128 -1.0896343e-21)
(2.5939804 -0.014034174 -5.6366665e-22)
(2.5927408 -0.013690695 1.1466682e-21)
(2.5920037 -0.013152002 4.1074966e-23)
(2.59141 -0.01297232 -6.717144e-22)
(2.5911033 -0.012465791 1.3136784e-21)
(2.5910343 -0.011832017 1.0420348e-21)
(2.5909085 -0.010952485 1.3464382e-21)
(2.5907513 -0.0097673618 -5.0187183e-22)
(2.5904735 -0.0085976539 -2.0079161e-21)
(2.5899601 -0.0071851165 -2.1912355e-21)
(2.589368 -0.0058851974 -3.4788691e-21)
(2.5884342 -0.0044574492 -2.4356164e-22)
(2.587635 -0.0033828659 -9.3898109e-22)
(2.5865069 -0.0023739996 -2.7273901e-21)
(2.5855998 -0.0014622062 -2.4815666e-22)
(2.5844209 -0.00064006311 6.3482417e-23)
(2.5836807 -0.00028495148 -1.7765014e-21)
(2.58276 -0.00012916994 -2.2787604e-21)
(2.5821944 0.00018374287 -1.6901827e-21)
(2.5814916 0.00034188758 -1.1082507e-21)
(2.6022373 -0.023793814 2.876873e-22)
(2.602447 -0.019311186 7.2452249e-22)
(2.6014567 -0.01569332 1.7083042e-21)
(2.5985613 -0.014598439 9.4742407e-22)
(2.5967719 -0.013818044 -4.1953984e-22)
(2.5949852 -0.013728472 5.8410586e-23)
(2.593938 -0.013429452 1.6890765e-21)
(2.5931627 -0.013754051 1.0182542e-22)
(2.5928175 -0.013578563 -5.6746282e-22)
(2.5929327 -0.013334252 6.8400232e-22)
(2.592993 -0.012697937 4.1754552e-22)
(2.593185 -0.011663666 6.0891055e-22)
(2.5931191 -0.010501427 -1.150399e-21)
(2.5928641 -0.0089286567 -3.3946153e-21)
(2.5924228 -0.0075302488 -3.5880428e-21)
(2.5916047 -0.0059215366 -1.3074652e-21)
(2.5907462 -0.0045427715 1.7915831e-21)
(2.5894791 -0.0031196526 2.8149379e-21)
(2.5884236 -0.0021081711 1.1725038e-21)
(2.5870316 -0.0012384178 -4.8394938e-25)
(2.5859206 -0.00047106764 2.9859615e-22)
(2.5845579 0.00015821534 6.7989248e-22)
(2.5836859 0.00034156981 2.384778e-22)
(2.5826574 0.00031379967 3.6350376e-21)
(2.5819908 0.00044047386 4.2629224e-21)
(2.5812323 0.0004481193 2.126561e-21)
(2.6063506 -0.024969808 -2.0818602e-22)
(2.6067455 -0.0197219 1.003386e-22)
(2.6056511 -0.015505884 5.2558739e-22)
(2.6020752 -0.01397569 9.7255063e-22)
(2.5997304 -0.013011191 2.3153197e-22)
(2.597103 -0.013186141 4.4214741e-22)
(2.5956055 -0.013144231 9.0745788e-22)
(2.5945195 -0.014086079 5.1293808e-22)
(2.5940621 -0.014392178 -1.0214073e-21)
(2.5943515 -0.014744706 9.8012338e-22)
(2.5946252 -0.01447738 2.1886174e-21)
(2.5952764 -0.013701689 2.327777e-22)
(2.5955599 -0.012666571 4.2099649e-22)
(2.5957542 -0.011042898 -1.1604403e-21)
(2.5955664 -0.0095042855 -3.2875942e-21)
(2.5949747 -0.0075694059 -2.113399e-21)
(2.5942295 -0.0059823792 7.0302113e-23)
(2.5929921 -0.0042909707 1.6330174e-21)
(2.5918074 -0.002918575 2.600336e-21)
(2.5901839 -0.0016131829 3.4954665e-21)
(2.5888715 -0.00073861496 2.4159323e-21)
(2.5872428 -7.8118966e-05 1.0667809e-21)
(2.5859549 0.00050369882 1.4387422e-21)
(2.5844462 0.00090727413 6.0610077e-22)
(2.5834693 0.00091934173 3.8333671e-21)
(2.5823564 0.00069830346 5.2390478e-21)
(2.5816337 0.00068041006 3.2266346e-21)
(2.5808465 0.00056175361 1.0770645e-21)
(2.6107095 -0.026265582 -5.1374678e-22)
(2.6115403 -0.020064604 -8.4585612e-22)
(2.6103774 -0.01513786 -5.7393483e-22)
(2.6059603 -0.012889067 -6.0639734e-22)
(2.6029692 -0.01152487 -2.0697083e-22)
(2.5992001 -0.011921043 -2.9487235e-21)
(2.597006 -0.01213424 -2.802058e-21)
(2.5953414 -0.013879344 2.7422102e-22)
(2.5946643 -0.014773604 -1.2058901e-22)
(2.5951114 -0.015946968 1.6456391e-21)
(2.5955995 -0.016253213 3.5717295e-21)
(2.5968509 -0.015927914 6.8531037e-22)
(2.5975915 -0.01513809 -1.1813015e-21)
(2.5984117 -0.013509566 5.6566909e-22)
(2.5986587 -0.011905251 -9.3083628e-22)
(2.5984991 -0.0096888844 -3.0383332e-21)
(2.5979725 -0.0078037083 -1.921233e-21)
(2.596852 -0.0056513552 2.366082e-21)
(2.5956965 -0.003987239 3.8797158e-21)
(2.5939864 -0.0023725531 2.8160734e-21)
(2.5924555 -0.0011174375 3.6666018e-21)
(2.590504 -4.1852147e-05 -4.4774723e-22)
(2.5889636 0.00062366077 -1.7671786e-21)
(2.5871561 0.0010278216 2.7439601e-21)
(2.5857271 0.0013886448 1.9732972e-21)
(2.5841315 0.0015673646 -7.7246935e-22)
(2.5830749 0.0014025361 4.9447526e-22)
(2.5819189 0.0010141461 -3.4728062e-21)
(2.5811682 0.00087635647 -5.6075834e-21)
(2.5803681 0.00064354907 -1.5492881e-21)
(2.6152994 -0.027780572 2.0774069e-23)
(2.6168668 -0.020446327 -8.6587359e-22)
(2.6158132 -0.014630515 -1.1967268e-21)
(2.6103812 -0.011306684 -1.4197917e-21)
(2.6065957 -0.0092716609 -1.4678471e-21)
(2.6012975 -0.0097917665 -2.6583777e-21)
(2.5981528 -0.010218562 -5.3006242e-21)
(2.595627 -0.012931117 -4.3751334e-21)
(2.5944919 -0.01459003 -1.4555873e-21)
(2.5950242 -0.016878297 -7.0755887e-21)
(2.5957237 -0.017947956 -5.52035e-21)
(2.5976588 -0.01832463 1.281175e-21)
(2.5989926 -0.017961302 -1.4898739e-21)
(2.600679 -0.01644941 2.8919894e-22)
(2.6015281 -0.014842227 1.9689078e-21)
(2.6020014 -0.012305357 -2.0181958e-21)
(2.6018877 -0.010135277 -4.032192e-21)
(2.6010687 -0.0075027312 5.2064148e-24)
(2.6000257 -0.0054118918 4.1002877e-21)
(2.5982694 -0.0032656569 2.9688132e-21)
(2.596656 -0.0016786907 1.9476389e-21)
(2.5944932 -0.00030842611 1.4810006e-21)
(2.5926459 0.00071920506 -2.4509285e-21)
(2.5904327 0.0014766716 -5.1729572e-21)
(2.5887191 0.0018982925 -9.4280264e-22)
(2.5867918 0.0020081887 -1.9548679e-21)
(2.5852797 0.0021453853 -4.6148756e-21)
(2.5836511 0.0021064588 -1.5837809e-21)
(2.5825534 0.0017822473 -5.3764991e-21)
(2.5813904 0.0012587217 -6.0535735e-21)
(2.5806286 0.0010137118 -2.2108891e-21)
(2.5798353 0.00068896196 1.0780935e-21)
(2.620129 -0.029609722 6.3314287e-24)
(2.6228398 -0.020952895 1.4491446e-21)
(2.6221281 -0.01407592 6.475124e-22)
(2.6155125 -0.0092084484 1.1060381e-21)
(2.6107708 -0.0061530165 9.2158307e-22)
(2.6034774 -0.0066490593 -4.843086e-21)
(2.5990556 -0.0071936326 -6.0191934e-21)
(2.5952633 -0.011049212 -1.9705351e-21)
(2.5934288 -0.013620888 -1.0235281e-21)
(2.593875 -0.017378466 -3.0772772e-21)
(2.5947361 -0.019511061 -8.441999e-21)
(2.5975314 -0.020883148 -3.5782443e-21)
(2.5995454 -0.021176081 2.8937619e-21)
(2.6023178 -0.019941089 -2.8951853e-21)
(2.6039953 -0.018436897 -1.2256109e-21)
(2.605376 -0.015598891 1.8012336e-21)
(2.6058641 -0.01312718 -1.9823149e-21)
(2.6055266 -0.0098908163 -2.7940385e-21)
(2.6047708 -0.007325899 1.0541179e-21)
(2.6031045 -0.0045802415 2.3354756e-21)
(2.6014476 -0.002498921 1.2391499e-21)
(2.5990607 -0.00060625111 5.3808218e-22)
(2.597011 0.00073417196 7.7970653e-23)
(2.5944883 0.001728376 -1.3445257e-21)
(2.5923882 0.0024434547 -3.9124211e-21)
(2.5900174 0.0028334413 -1.1220523e-21)
(2.5881887 0.0029800462 -2.0837706e-21)
(2.5862153 0.0028105353 -4.2205295e-21)
(2.5846712 0.0027360841 -1.3399181e-21)
(2.5830564 0.0025055111 -7.7358138e-22)
(2.5819527 0.0020501119 -1.3496912e-21)
(2.580808 0.0014213833 4.030089e-23)
(2.5800534 0.0010903133 3.1924836e-21)
(2.5792834 0.00070850994 2.6179251e-21)
(2.6251432 -0.03185716 0)
(2.6295218 -0.021701895 2.6887803e-21)
(2.6294816 -0.013572921 4.0884053e-21)
(2.6215296 -0.0066085282 3.8658228e-22)
(2.6156787 -0.0020696602 8.1098654e-22)
(2.6058436 -0.0023367892 3.2985559e-21)
(2.5997575 -0.0028436706 -2.1346056e-21)
(2.5941968 -0.0080091492 -1.3051286e-21)
(2.591313 -0.011660047 2.5765599e-21)
(2.5914821 -0.017300228 2.6150222e-21)
(2.5923668 -0.020822671 7.1839765e-22)
(2.5961161 -0.023568996 -7.7892487e-21)
(2.5989824 -0.024807912 -3.1678209e-21)
(2.6031567 -0.024066615 2.7327977e-21)
(2.6058668 -0.022827541 -2.7592066e-21)
(2.6084509 -0.019716362 -1.8401682e-21)
(2.6097979 -0.016951075 1.019074e-21)
(2.6101927 -0.013024058 -1.7391517e-21)
(2.6098952 -0.0098872884 -2.5055092e-21)
(2.6084389 -0.0063539702 2.3465098e-21)
(2.6068674 -0.0036835183 3.5800146e-21)
(2.6043251 -0.0011779831 -1.1123266e-21)
(2.6020592 0.00065168104 -1.8082701e-21)
(2.5991477 0.0020777401 1.9003885e-21)
(2.5967494 0.0030540777 5.7532884e-22)
(2.5939924 0.0035702321 -1.3428901e-21)
(2.5917407 0.0039281807 1.3402933e-21)
(2.589318 0.0039440176 2.3541903e-21)
(2.5874452 0.0038193848 3.9088467e-22)
(2.5854937 0.0034039766 4.9040834e-21)
(2.5839634 0.0031438163 5.5304544e-21)
(2.5823995 0.0027598351 4.8211973e-21)
(2.5813143 0.0022011664 6.2285962e-21)
(2.5802068 0.001499661 1.415371e-21)
(2.5794755 0.0011150098 8.4468528e-22)
(2.5787399 0.00070920875 -1.03501e-22)
(2.6301736 -0.034558034 1.5569715e-21)
(2.636703 -0.02277274 -3.2686232e-21)
(2.6377676 -0.013249805 -8.0286903e-22)
(2.6286305 -0.003508582 1.3875448e-21)
(2.621562 0.0030639598 -2.1667253e-21)
(2.6085276 0.0033138879 5.973188e-21)
(2.600323 0.0030630162 8.4254098e-21)
(2.5923654 -0.003585571 7.6578526e-21)
(2.5879928 -0.0084692486 8.5273335e-21)
(2.5876228 -0.016459223 -2.3491766e-21)
(2.5883729 -0.02176955 -2.3815385e-21)
(2.5931974 -0.026357308 1.1975373e-21)
(2.5970055 -0.02890361 -6.8633166e-21)
(2.6028957 -0.028911688 -3.8550542e-21)
(2.6069306 -0.02813938 1.7315557e-21)
(2.6110889 -0.024824254 -4.9160684e-21)
(2.6135684 -0.021805327 -4.07723e-21)
(2.6149878 -0.017083415 1.9088689e-21)
(2.6153861 -0.013283298 -6.9437069e-22)
(2.6143201 -0.0087836252 -1.6144666e-21)
(2.6129502 -0.0053631703 2.9996895e-21)
(2.6102875 -0.0020283493 3.5222773e-21)
(2.6078721 0.00040390686 -9.28793e-22)
(2.6045841 0.0023506955 -2.8973837e-22)
(2.6018129 0.0037280732 3.2457401e-21)
(2.5985644 0.0045375552 2.5371955e-21)
(2.5959408 0.0050595322 7.4578512e-22)
(2.5931009 0.005084578 -1.9327339e-21)
(2.5907991 0.0050808251 -1.0177749e-21)
(2.5884201 0.0047575444 -2.6883814e-22)
(2.5865686 0.0043912622 4.0019926e-21)
(2.5846928 0.0037783787 4.8492881e-21)
(2.5832118 0.0033692683 4.1675658e-21)
(2.5817235 0.0028763152 5.3158131e-21)
(2.5806748 0.0022457052 7.3687782e-22)
(2.5796174 0.0015061122 3.1952017e-21)
(2.57892 0.0010985099 2.3296475e-21)
(2.5782242 0.00069462214 -3.0814684e-21)
(2.6357909 -0.037536646 9.1231839e-22)
(2.6434577 -0.024265217 1.9800362e-21)
(2.6459901 -0.013211597 -2.6046702e-21)
(2.636612 6.6546159e-05 -4.237955e-21)
(2.6285102 0.0092729872 -2.2144327e-21)
(2.6118107 0.010472834 -7.2771963e-21)
(2.6009167 0.010755203 3.6056097e-22)
(2.5897547 0.0024840899 2.9577347e-21)
(2.5833277 -0.0037868357 2.1234214e-21)
(2.5820533 -0.014674304 1.411456e-20)
(2.5824454 -0.022220837 3.8789873e-21)
(2.5884685 -0.029190172 4.6689054e-21)
(2.593338 -0.03348583 8.1613379e-21)
(2.6013034 -0.034584372 -3.0427167e-21)
(2.6069522 -0.034530766 -1.3571825e-22)
(2.6130995 -0.031103976 3.8042734e-21)
(2.6170514 -0.02789311 -2.4706593e-21)
(2.6198535 -0.022284709 -5.8584208e-21)
(2.6212242 -0.017733329 -2.0667464e-22)
(2.6207691 -0.012047382 1.2655677e-21)
(2.6197753 -0.0076982094 4.206776e-22)
(2.6170655 -0.0032998081 2.7397414e-21)
(2.6145349 -7.0163302e-05 3.2316617e-21)
(2.6108068 0.0025911324 -9.1923259e-23)
(2.6076725 0.004485057 5.2280462e-22)
(2.603886 0.005634313 2.3589261e-21)
(2.600789 0.0064195508 1.6708532e-21)
(2.5974195 0.0065691761 -4.8767102e-23)
(2.5947157 0.0066137498 -2.5983728e-21)
(2.5919346 0.0061888571 -3.2556902e-21)
(2.5896746 0.0058562516 -2.5760156e-21)
(2.5874145 0.0052570544 -1.1585793e-21)
(2.5856361 0.0046954448 -4.2845829e-22)
(2.5838722 0.0039419268 -3.2209969e-21)
(2.5824642 0.0034264713 -2.238061e-21)
(2.5810653 0.0028693208 -2.9512951e-21)
(2.5800654 0.0022005361 -6.7250114e-22)
(2.5790641 0.0014541535 2.7878924e-21)
(2.5784056 0.0010474223 -2.3385342e-21)
(2.5777507 0.00066726392 -7.0562932e-22)
(2.6413549 -0.040883159 3.1233866e-21)
(2.652008 -0.025521622 2.0796537e-21)
(2.6549478 -0.013129968 3.0839767e-21)
(2.6432239 0.0040779549 -1.0645193e-21)
(2.635008 0.016723771 -2.5894425e-21)
(2.6150242 0.019245975 -3.9807272e-22)
(2.6010541 0.020462387 -5.2008414e-21)
(2.586473 0.010456096 -1.7509128e-20)
(2.5772657 0.0026666814 -1.5324835e-20)
(2.5745593 -0.011747323 4.3414184e-21)
(2.5742854 -0.022040384 1.574281e-20)
(2.5816111 -0.032022323 -3.4321289e-22)
(2.5876642 -0.038589728 3.469126e-22)
(2.5981177 -0.041168115 8.7476536e-21)
(2.6057071 -0.042151168 -1.868708e-21)
(2.6143105 -0.038747889 3.3891486e-21)
(2.6201099 -0.035439176 7.1749501e-21)
(2.6247149 -0.028869826 -4.9758014e-21)
(2.6273948 -0.023478715 -8.2282643e-21)
(2.6278329 -0.016363068 1.5368019e-21)
(2.6274315 -0.010882187 2.9575767e-21)
(2.624769 -0.0051248501 -3.8509375e-22)
(2.6221985 -0.00086674251 1.8028707e-21)
(2.6179891 0.0027455437 5.508913e-21)
(2.6144323 0.0053304592 2.3890957e-21)
(2.6099764 0.0069609315 -8.4893057e-22)
(2.6063584 0.0080913202 8.6978509e-22)
(2.6023819 0.0083587965 -1.8750345e-21)
(2.5991669 0.0085056334 -3.5576686e-21)
(2.5958806 0.008040812 1.9675601e-21)
(2.5932329 0.0076449344 1.4105483e-21)
(2.5906219 0.0068527565 5.6113644e-23)
(2.5884762 0.0062513775 1.4382803e-21)
(2.586385 0.0054537067 1.9516979e-21)
(2.5847145 0.0047519172 -6.6299205e-22)
(2.583082 0.003916116 -1.1253707e-21)
(2.5817602 0.0033373448 -1.7859264e-21)
(2.5804547 0.0027572141 -5.7147654e-21)
(2.5795095 0.002080819 -2.5050265e-21)
(2.5785644 0.0013543904 -3.6757575e-21)
(2.5779454 0.00096859677 -2.1460717e-21)
(2.577329 0.00062940975 2.3066726e-21)
(2.6452534 -0.045062957 1.0577635e-21)
(2.6613588 -0.0267751 -1.9100569e-21)
(2.6663282 -0.012227235 -2.9938638e-21)
(2.6489297 0.0097984332 -1.1329353e-21)
(2.6387442 0.026051079 -5.1185942e-21)
(2.6143169 0.03012319 1.220438e-22)
(2.5976837 0.032643164 2.2377854e-21)
(2.5810193 0.020554922 5.760523e-21)
(2.5688562 0.011171996 -5.821417e-21)
(2.5650595 -0.0074590595 -1.1151155e-20)
(2.5636533 -0.021090767 7.5551923e-21)
(2.572334 -0.03482092 3.880735e-21)
(2.5796715 -0.044256 -1.1524491e-20)
(2.5930602 -0.048751686 -1.3939682e-20)
(2.6029642 -0.051150474 -6.1802943e-21)
(2.6145416 -0.047941781 4.0188593e-21)
(2.6226055 -0.044664161 9.1018235e-21)
(2.6294929 -0.037079885 3.3160442e-22)
(2.6338749 -0.030783679 -1.1291564e-20)
(2.635561 -0.021988203 -7.8871512e-21)
(2.6360308 -0.015143216 1.3782283e-21)
(2.633553 -0.0076646162 3.2183769e-21)
(2.6310393 -0.0020974586 5.8636614e-23)
(2.6262859 0.0027655931 -3.0083943e-21)
(2.6222685 0.0062759648 4.382235e-22)
(2.6170002 0.0085630325 -2.0245706e-21)
(2.6127341 0.010160158 -5.1582747e-21)
(2.6079869 0.01060515 -3.1301949e-22)
(2.6041832 0.010882314 -2.9361871e-21)
(2.6003149 0.010318477 -7.6823047e-22)
(2.5971789 0.0098686133 4.5121495e-21)
(2.5941355 0.0089019444 2.8799642e-21)
(2.5916511 0.0081453156 1.6163288e-21)
(2.5892817 0.0070906715 3.7752975e-21)
(2.5872984 0.00629488 4.2973614e-21)
(2.5854009 0.0053787524 1.9096291e-21)
(2.5838569 0.0045935722 1.5080831e-21)
(2.5823601 0.0037300043 1.491547e-21)
(2.5811286 0.0031276687 -2.1880335e-21)
(2.579913 0.0025602002 -2.0434826e-21)
(2.5790225 0.0019023637 -3.1474022e-21)
(2.5781294 0.0012169592 -3.3261271e-21)
(2.5775485 0.00086840553 8.8087111e-22)
(2.5769648 0.00058339281 -1.6740892e-21)
(2.6475589 -0.051336792 -2.474809e-20)
(2.6744969 -0.030302583 6.6184844e-21)
(2.6839091 -0.012823037 3.8823859e-21)
(2.6636001 0.01659007 -3.90097e-21)
(2.6485855 0.037942614 -2.1490805e-21)
(2.6095074 0.044189107 -1.0534101e-21)
(2.5890825 0.048159355 3.9725605e-21)
(2.5679887 0.033359877 -1.4210999e-20)
(2.5541229 0.02200029 -1.1135514e-20)
(2.5518675 -0.0016034038 -7.482612e-21)
(2.5496705 -0.0192092 -1.2527994e-20)
(2.5604108 -0.037535689 1.4681191e-20)
(2.5690894 -0.050529846 1.1309294e-20)
(2.5858837 -0.057449705 -4.1162003e-21)
(2.5985016 -0.061681962 -6.3153042e-21)
(2.6136117 -0.058860483 -4.8262357e-21)
(2.6243959 -0.055779807 4.9016095e-21)
(2.6341025 -0.047168683 6.0768045e-21)
(2.6406297 -0.039920403 -2.2825021e-21)
(2.6439965 -0.029187803 -1.2803086e-20)
(2.6456907 -0.020743442 -9.5958489e-21)
(2.6435955 -0.011130074 1.8872814e-21)
(2.6412833 -0.0039069022 3.6457607e-21)
(2.6359281 0.0026036925 -1.7842688e-22)
(2.6313961 0.0073273281 -3.0989894e-21)
(2.6251154 0.010497265 -2.5169897e-21)
(2.6200618 0.012739608 -4.8947372e-21)
(2.6143485 0.013435791 -6.9218318e-21)
(2.6097958 0.013889252 -2.3515296e-21)
(2.6051905 0.013203465 -1.6743377e-22)
(2.601489 0.012672512 1.9321228e-21)
(2.5979618 0.011432367 1.4650732e-21)
(2.5950588 0.010493117 -1.2663179e-22)
(2.5923587 0.0091722587 -3.2620045e-21)
(2.5901064 0.0081566258 -1.2837776e-21)
(2.5880117 0.0069486311 2.1261069e-21)
(2.5862145 0.0060356678 -1.6900772e-22)
(2.5845144 0.0050755938 -1.1940376e-21)
(2.5831011 0.0042601358 -1.2487001e-21)
(2.581733 0.0034165464 -2.955059e-21)
(2.5805883 0.0028251631 -2.8289542e-21)
(2.5794529 0.0022998447 1.1582151e-21)
(2.5786132 0.0016810817 1.0510564e-21)
(2.5777646 0.0010498466 1.294537e-21)
(2.5772178 0.00075133868 -1.1232785e-21)
(2.5766613 0.0005348522 -9.6442929e-22)
(2.6491276 -0.060823054 -1.9315193e-20)
(2.6928797 -0.039075173 -3.1179801e-20)
(2.7121925 -0.019007409 -1.5247836e-21)
(2.6989514 0.019785578 7.9608021e-21)
(2.6821444 0.048534591 6.374959e-22)
(2.6260572 0.060478104 2.9953709e-21)
(2.5923148 0.066851287 4.1061072e-21)
(2.549815 0.049166738 2.4903521e-20)
(2.5320999 0.035339861 7.8920188e-21)
(2.5295836 0.005799519 -3.054833e-20)
(2.5290911 -0.0165089 -2.7326115e-20)
(2.544761 -0.040101831 -2.2288868e-21)
(2.555456 -0.057448856 2.3736651e-20)
(2.5763841 -0.067362749 2.1528063e-20)
(2.5921336 -0.073887036 7.0377969e-21)
(2.6113524 -0.071677855 -3.7053884e-21)
(2.6253432 -0.06897625 -2.2344798e-21)
(2.6384437 -0.059365734 5.6514515e-21)
(2.6476035 -0.051156225 6.7763767e-21)
(2.6531719 -0.038263151 -5.7390414e-22)
(2.6565237 -0.027977111 -1.0526634e-20)
(2.6550886 -0.01575179 -4.5039989e-21)
(2.6531878 -0.0064744999 6.4577356e-21)
(2.6471888 0.002167165 4.3322778e-21)
(2.642093 0.0084822758 6.9757171e-22)
(2.6345607 0.012855468 -3.4494086e-22)
(2.6285257 0.015964893 2.5805606e-22)
(2.6215705 0.01700334 4.5172474e-21)
(2.6160766 0.017714518 2.7285712e-21)
(2.6105441 0.016872618 7.4507716e-22)
(2.6061247 0.016229394 2.8588761e-21)
(2.601998 0.014628823 -1.7070747e-22)
(2.5986238 0.01343763 -6.4375696e-22)
(2.5955784 0.011729558 -1.6860856e-21)
(2.5930051 0.010443034 -4.684862e-21)
(2.5906903 0.0089207367 -5.5058761e-21)
(2.5887016 0.0077519417 -2.3311904e-21)
(2.5868828 0.0064910989 2.534816e-22)
(2.5852753 0.0055330782 -7.1336097e-22)
(2.5837599 0.0045934621 -4.6433349e-21)
(2.5824706 0.0037942836 -6.3110065e-21)
(2.5812156 0.0030104783 -2.7192775e-21)
(2.5801487 0.0024587127 1.0646014e-21)
(2.5790792 0.0019999935 1.0858516e-21)
(2.5782829 0.0014332715 1.3172494e-21)
(2.5774698 0.00086475037 2.6232726e-21)
(2.5769483 0.0006288677 2.8284199e-21)
(2.5764166 0.00049105602 2.8416192e-21)
(2.6502192 -0.073921736 1.4895782e-20)
(2.7150236 -0.05452357 -1.2282461e-20)
(2.7502481 -0.033756287 -2.3434766e-20)
(2.7551834 0.014688833 -1.1196544e-20)
(2.746525 0.052005435 -2.3373746e-21)
(2.6858451 0.073893796 -1.8403168e-20)
(2.6366698 0.086143686 -1.6386917e-20)
(2.5601631 0.067401534 8.200397e-21)
(2.5228259 0.050845857 2.7920505e-20)
(2.5020677 0.014143277 4.2201481e-20)
(2.5016494 -0.01372402 6.1791334e-21)
(2.5217287 -0.043012991 -6.3091121e-21)
(2.5371738 -0.065310395 1.7801649e-20)
(2.5641687 -0.078539072 9.4465098e-21)
(2.5837136 -0.087889666 7.1521079e-21)
(2.6076316 -0.086533455 9.8831786e-21)
(2.6253225 -0.084413866 -2.6434279e-22)
(2.642416 -0.073883427 -1.2122471e-21)
(2.6547163 -0.064738613 6.2800931e-21)
(2.6630908 -0.04950449 4.9108706e-21)
(2.6686243 -0.037166041 -2.0817832e-21)
(2.6682326 -0.02181402 -4.892885e-21)
(2.6670373 -0.010020528 8.9802271e-22)
(2.660383 0.0013526439 8.6334412e-21)
(2.654693 0.0097360222 6.6393687e-21)
(2.6456115 0.015710368 5.2942512e-22)
(2.6383673 0.019997453 -4.5046853e-22)
(2.6298214 0.021522291 -6.9023503e-22)
(2.6231159 0.02258568 3.335785e-21)
(2.6163895 0.021533142 6.2578529e-21)
(2.6110639 0.020754008 4.4218849e-21)
(2.6062007 0.018678366 3.2897684e-21)
(2.6022412 0.017143876 4.264771e-22)
(2.5987893 0.014927754 -2.2206672e-22)
(2.5958783 0.013277415 -1.2060591e-21)
(2.593366 0.011315974 -9.1186401e-22)
(2.5911625 0.009829865 -1.6374007e-21)
(2.589228 0.0082435222 -2.5720247e-21)
(2.5875043 0.0070190024 -1.2390869e-22)
(2.5859402 0.0057904907 -3.3319729e-22)
(2.5845104 0.0048498458 -4.0554057e-21)
(2.5831565 0.0039831747 -3.1444013e-21)
(2.5819765 0.0032391669 3.0858277e-22)
(2.5808139 0.0025469776 5.763002e-22)
(2.5798109 0.0020585344 5.8928507e-22)
(2.5787896 0.0016867456 -6.3168924e-23)
(2.5780274 0.0011813547 1.1556974e-21)
(2.5772396 0.00069246065 2.7693905e-21)
(2.57674 0.00052734673 2.7811749e-21)
(2.576219 0.00045555041 2.4102938e-21)
(2.6501125 -0.090379094 -1.2610835e-20)
(2.7378215 -0.076182539 1.678408e-20)
(2.7930342 -0.057705114 -8.9629314e-21)
(2.8231859 -0.001085178 -2.5507682e-20)
(2.8335015 0.045378137 -1.3932249e-20)
(2.7821841 0.080140678 1.5889132e-20)
(2.7291536 0.10204337 9.0473001e-22)
(2.6277723 0.086509305 -2.282943e-20)
(2.5592799 0.068928222 3.4193281e-22)
(2.5006152 0.02427381 5.4126587e-20)
(2.483479 -0.010729636 6.8051025e-20)
(2.4930239 -0.047417165 -1.8452341e-20)
(2.5127993 -0.075155204 -3.0636885e-20)
(2.5477402 -0.091452597 1.8108719e-21)
(2.5728777 -0.10389199 -6.3357372e-21)
(2.6023594 -0.10350663 3.8917207e-21)
(2.624251 -0.10220037 6.4781358e-21)
(2.6459046 -0.090876509 4.3898556e-22)
(2.6618554 -0.080877182 -4.4997924e-22)
(2.6737289 -0.063211612 -9.1354891e-22)
(2.6820577 -0.048652843 -2.3198729e-21)
(2.6832155 -0.029610822 2.8975553e-21)
(2.6831344 -0.01480969 3.0188863e-22)
(2.6758644 1.3186096e-05 -2.6802427e-21)
(2.6695916 0.011058291 4.6050511e-21)
(2.6586189 0.019159214 3.6883657e-21)
(2.6498843 0.025021794 -2.1478935e-21)
(2.6392971 0.027220429 1.5273984e-21)
(2.631036 0.028785102 1.3100421e-21)
(2.6227692 0.027468701 -1.1282071e-21)
(2.6162734 0.026506382 1.5795999e-21)
(2.6104833 0.023789047 4.407226e-21)
(2.6058021 0.021807271 3.336994e-21)
(2.6018824 0.018930127 2.3455115e-21)
(2.5985725 0.016792471 1.7552579e-21)
(2.5958544 0.014265907 -1.0344555e-21)
(2.5934556 0.012364109 -7.5382201e-22)
(2.5914581 0.010337288 5.703224e-22)
(2.5896198 0.0087846014 -2.8403626e-22)
(2.5880295 0.0072460684 3.7803639e-21)
(2.5865505 0.0060483787 3.6382073e-21)
(2.5852066 0.004920065 -1.9157455e-21)
(2.5839325 0.0040477625 -1.0205845e-21)
(2.5827104 0.0032948246 4.2268698e-21)
(2.58162 0.0026372676 4.5376571e-21)
(2.5805264 0.0020609483 -8.6257566e-22)
(2.5795701 0.0016555599 -1.5027058e-21)
(2.5785778 0.0013845592 -2.5819299e-21)
(2.5778415 0.00095745927 -1.1052984e-21)
(2.577067 0.0005517431 4.7797434e-21)
(2.5765797 0.00044582848 4.4569984e-21)
(2.576058 0.00042835207 9.1380157e-22)
(2.647795 -0.10953536 -1.6464545e-20)
(2.7579073 -0.10326226 4.0930309e-20)
(2.8346845 -0.089841413 6.9576256e-20)
(2.8930262 -0.025617138 1.5860356e-20)
(2.9289966 0.028883676 5.1956509e-22)
(2.894932 0.078785356 1.9768223e-21)
(2.8512825 0.11305843 3.0458218e-20)
(2.7391804 0.1054748 5.9366798e-20)
(2.6482318 0.091809824 3.7629841e-20)
(2.5472131 0.039194227 1.1587957e-20)
(2.4947022 -0.0036290434 6.2804706e-20)
(2.4779356 -0.051403343 1.3595182e-20)
(2.4879276 -0.086961791 -6.916181e-20)
(2.526405 -0.10709063 -3.6786188e-20)
(2.5588421 -0.12250907 -6.1040995e-21)
(2.5952647 -0.12279975 -6.1834963e-22)
(2.6221104 -0.12239061 9.1388507e-21)
(2.6488203 -0.11044905 6.475179e-21)
(2.668872 -0.099720319 7.1400214e-22)
(2.6849967 -0.079649377 -3.1901561e-21)
(2.6968269 -0.062791131 -3.6779887e-21)
(2.700207 -0.039514267 3.5141274e-21)
(2.7017934 -0.021162396 8.5439963e-21)
(2.6940234 -0.001998985 1.1974954e-21)
(2.6872419 0.012387044 -1.6178937e-21)
(2.6739924 0.023290145 -5.9541653e-22)
(2.6634424 0.031249165 -1.5265542e-21)
(2.6502494 0.034392057 -1.4777068e-21)
(2.6399879 0.036651125 2.0134257e-21)
(2.6297265 0.034993233 2.6454647e-21)
(2.6217156 0.033805064 3.3563632e-22)
(2.6147539 0.030241314 -1.3728055e-21)
(2.6091616 0.02765589 1.2591174e-21)
(2.6046904 0.023900307 1.5672977e-21)
(2.6009196 0.021132312 5.9921315e-22)
(2.5980063 0.017889873 3.7990905e-21)
(2.5954024 0.015444339 1.1823433e-21)
(2.5933736 0.012865877 -1.004995e-21)
(2.5914692 0.010894767 2.4738231e-22)