/*--------------------------------*- C++ -*----------------------------------*\
| =========                 |                                                 |
| \\      /  F ield         | OpenFOAM: The Open Source CFD Toolbox           |
|  \\    /   O peration     | Version:  v2012                                 |
|   \\  /    A nd           | Website:  www.openfoam.com                      |
|    \\/     M anipulation  |                                                 |
\*---------------------------------------------------------------------------*/
FoamFile
{
    version     2.0;
    format      ascii;
    class       surfaceScalarField;
    location    "118.517163517870358";
    object      meshPhi;
}
// * * * * * * * * * * * * * * * * * * * * * * * * * * * * * * * * * * * * * //

dimensions      [0 3 -1 0 0 0 0];
oriented        oriented;


internalField   nonuniform List<scalar> 
18180
(
1.0819688e-13
0.069010555
0
0.063104889
0
0.13275637
0
0.05739658
0
0.12131597
0
0.19182035
0
0.052119891
-1.0439404e-13
0.10967686
0
0.17527274
0
0.24876794
-5.4120902e-14
0.047779841
0
0.099966562
0
0.15914594
0
0.22817228
0
0.30396249
2.7365955e-17
0.044342808
-5.2179084e-14
0.092221493
0
0.14546762
0
0.20803953
0
0.28032355
9.0382712e-14
0.35771109
0
0.041449262
-5.2142887e-14
0.085824142
5.0314014e-14
0.13444988
4.8570123e-14
0.19064683
9.3674297e-14
0.25699228
0
0.33125505
0
0.40874267
0
0.038962711
-2.5851173e-17
0.080425321
0
0.12548849
0
0.17638985
-4.6856867e-14
0.23631116
0
0.30545016
0
0.3799652
0
0.45685708
0
0.036745871
-5.2146651e-14
0.075659018
5.0295225e-14
0.11785871
-4.8531464e-14
0.16470674
-4.6826508e-14
0.21887011
0
0.28193152
8.7180574e-14
0.3520007
0
0.42580017
0
0.50128776
5.4003694e-14
0.034725079
0
0.071319059
-5.0285298e-14
0.1110537
-2.4460558e-17
0.15471919
0
0.20405284
-2.4407714e-17
0.26126558
4.3610109e-14
0.32606137
0
0.39592728
0
0.46819177
0
0.54219575
-5.4020691e-14
0.032847618
0
0.067282713
5.027539e-14
0.10478232
4.8514451e-14
0.14583136
0
0.19134241
2.427976e-17
0.2434185
-8.7187912e-14
0.30271067
4.2049693e-14
0.36784279
0
0.43661239
0
0.50716018
7.5525852e-14
0.57926056
0
0.031079948
0
0.063481288
-5.0291351e-14
0.098880683
0
0.13767041
4.6805703e-14
0.18011995
4.5163624e-14
0.22777721
-4.3577707e-14
0.28177385
-4.2046131e-14
0.34191038
0
0.40667797
-7.8318209e-14
0.47399038
0
0.54244075
0
0.61291623
-2.6985437e-14
0.029398228
0
0.059873645
0
0.09327123
4.8497062e-14
0.12998571
-4.67981e-14
0.16982035
0
0.21376591
-4.359613e-14
0.26300436
0
0.31813735
-2.1225176e-17
0.37856096
-3.9137328e-14
0.44242286
7.5519014e-14
0.50785195
0
0.57440979
0
0.64315112
0
0.027793058
-2.6034518e-14
0.056443558
0
0.087924916
0
0.12267544
-4.6815007e-14
0.16018367
0
0.20103354
0
0.2461872
4.2039213e-14
0.29649343
4.0582777e-14
0.35229614
-3.9154451e-14
0.4125001
3.7757325e-14
0.47496681
7.2854497e-14
0.53851309
0
0.60317288
6.7802166e-14
0.67056359
2.6976229e-14
0.026257514
0
0.05318129
2.5132426e-14
0.082833192
0
0.11569741
0
0.15104737
0
0.18922216
0
0.23093664
0
0.27687155
-4.0579591e-14
0.32792755
-3.9132504e-14
0.38409196
-1.8081419e-17
0.44355156
-1.6158485e-17
0.50444132
-7.0311124e-14
0.56612614
6.7801482e-14
0.62920811
-2.1869885e-17
0.69515225
0
0.02477989
5.2065537e-14
0.050082372
-1.3156844e-17
0.077993252
0
0.10904597
0
0.14234425
0
0.1781051
-4.3579234e-14
0.21689106
0
0.259097
0
0.305656
-1.9443903e-17
0.35744103
-3.7753267e-14
0.41353154
-3.6424006e-14
0.47187446
-1.0543573e-13
0.53105906
0
0.59105891
0
0.65257692
0
0.71746045
0
0.023352153
0
0.047137352
-1.3224168e-17
0.073403505
-2.4245858e-14
0.10272126
-2.3384518e-14
0.13405027
0
0.16756688
0
0.203796
0
0.24289186
0
0.28556467
0
0.3329772
0
0.38515174
0
0.44059139
-3.5154416e-14
0.49751737
3.3913102e-14
0.55505977
0
0.61345636
0
0.67373619
-6.0875176e-14
0.73746887
0
0.021968629
0
0.044339989
0
0.069063407
-4.8484995e-14
0.09672356
2.3381245e-14
0.12616116
0
0.15754722
0
0.19146663
0
0.22791372
4.0549364e-14
0.26733096
0
0.31076991
0
0.35887448
-3.6438634e-14
0.41087534
-3.5138543e-14
0.4652507
-1.3669151e-17
0.52073784
0
0.57667947
0
0.63370863
6.0858496e-14
0.69278238
-1.6179107e-17
0.75567661
2.6977355e-14
0.020627767
0
0.041681256
-1.3385777e-17
0.064967992
-2.4239344e-14
0.091050556
2.3378154e-14
0.11867655
-2.2571324e-14
0.14802482
0
0.17980637
0
0.21391382
0
0.25058484
0
0.29069096
0
0.33503099
0
0.38326094
3.5138111e-14
0.43446186
0
0.48765374
-1.2292758e-17
0.54165175
0
0.59618295
6.0860377e-14
0.65197734
0
0.71007428
-5.6635471e-14
0.77199275
0
0.019334078
2.6026263e-14
0.039154798
0
0.061107582
-1.3460421e-17
0.085694094
0
0.11159477
-1.1446625e-17
0.13898953
-1.0947257e-17
0.16876259
1.0343765e-17
0.20074129
0
0.23503488
0
0.27235214
-1.8300528e-17
0.31337277
0
0.35795528
0
0.40559712
0
0.45585991
0
0.50782115
3.1547891e-14
0.56052435
0
0.61379108
5.8705968e-14
0.6685066
0
0.72560563
-5.462605e-14
0.78683689
0
0.018092846
0
0.036756115
-2.5112167e-14
0.057469751
-2.4233674e-14
0.080642351
2.3372538e-14
0.10490927
0
0.1304413
-2.1776096e-14
0.15830983
2.1004048e-14
0.18831
0
0.22045899
0
0.25534727
0
0.29350251
0
0.33480984
0
0.37892123
0
0.42580719
0
0.47514817
1.1416995e-17
0.52603207
-1.0014623e-17
0.57754939
0
0.62968113
5.6626383e-14
0.68338102
0
0.73969381
0
0.80010629
0
0.016906535
0
0.034479872
0
0.054037265
0
0.075876175
-4.6740028e-14
0.0986139
2.2551995e-14
0.12238016
0
0.14843856
-2.101227e-14
0.17657292
2.0267364e-14
0.20674028
-1.9557516e-14
0.23945788
0
0.27512805
0
0.31358293
0
0.35443533
0
0.39793179
0
0.44414353
3.1550391e-14
0.4925694
-3.0434737e-14
0.54247009
-2.9365855e-14
0.59295123
0
0.64401374
5.4619288e-14
0.69684088
0
0.75235488
-1.0745967e-17
0.81219668
7.6221938e-18
0.015777335
0
0.032321568
0
0.050795006
0
0.071377717
0
0.092693319
0
0.11480276
2.1760638e-14
0.13914241
2.1010255e-14
0.16549924
-2.0275397e-14
0.19380683
-1.9565501e-14
0.22453482
0
0.25799212
3.6434587e-14
0.29398515
0
0.33199866
-3.3916108e-14
0.37231652
0
0.41527526
0
0.46068453
-3.0447275e-14
0.50833866
9.3859582e-18
0.55740149
2.8309705e-14
0.60685115
0
0.65694945
-5.2694528e-14
0.70897414
0
0.76383844
0
0.82297646
1.3475651e-14
0.014709184
1.3008679e-14
0.030277067
-2.5091311e-14
0.047730877
0
0.067126579
2.3365535e-14
0.087126301
0
0.10769473
1.0770247e-17
0.13040972
-2.1008342e-14
0.15506745
-2.0273763e-14
0.18161232
-9.4530445e-18
0.2104925
0
0.24192194
0
0.27574255
0
0.31131306
0
0.34874613
0
0.38864948
0
0.43101967
3.0438931e-14
0.47574744
0
0.52271169
2.8329352e-14
0.57092988
-2.7322594e-14
0.61942601
-5.2694196e-14
0.668621
0
0.71991638
0
0.77411189
-4.7266999e-14
0.83277373
0
0.013703665
0
0.028344047
7.0770265e-18
0.0448332
0
0.063106348
0
0.081888428
-2.255668e-14
0.10103314
2.1756666e-14
0.12221954
0
0.14525515
2.0262475e-14
0.17012245
0
0.19727149
-9.2520975e-18
0.22681502
-1.8215895e-14
0.25865932
1.7576556e-14
0.29208741
0
0.32703354
0
0.36416732
3.1555929e-14
0.403658
0
0.44538351
2.9374456e-14
0.48950906
-2.8332856e-14
0.53583865
2.732636e-14
0.58323447
2.6347264e-14
0.63078216
0
0.67910325
0
0.72972139
0
0.78339734
4.5577939e-14
0.84147055
7.5334838e-18
0.012761218
0
0.026519572
-7.1465538e-18
0.0420916
-1.2104505e-14
0.059300578
0
0.076955291
-2.2543975e-14
0.094797092
2.1754911e-14
0.11454882
0
0.13604088
0
0.15930766
1.9552014e-14
0.1848293
0
0.21260025
1.8206161e-14
0.24260545
0
0.27410825
0
0.30690522
0
0.34155315
0
0.37835479
0
0.41732409
0
0.458548
-2.8327468e-14
0.50217116
-2.7330431e-14
0.54784316
-2.6351119e-14
0.59441257
0
0.64101658
4.9019995e-14
0.68850505
0
0.7385342
0
0.79169543
4.3956521e-14
0.84939281
0
0.011881075
1.3006505e-14
0.024801075
0
0.039498334
0
0.055697477
-2.3360181e-14
0.072304322
0
0.088958522
2.176393e-14
0.10737515
2.0993119e-14
0.12740048
0
0.14914417
-1.9560357e-14
0.17313024
0
0.19922473
0
0.22750303
-8.3101121e-18
0.25721611
-1.6958733e-14
0.28807913
1.6362505e-14
0.32055139
0
0.35490987
0
0.39130046
-2.9371032e-14
0.42988544
0
0.47072992
2.7326353e-14
0.51384202
-2.6362854e-14
0.55887465
0
0.60456375
-2.4516811e-14
0.65020195
0
0.69690459
-4.5594916e-14
0.7464228
0
0.79918399
4.2392353e-14
0.85642905
1.3480836e-14
0.011062813
1.2998804e-14
0.023187205
7.2767824e-18
0.0370476
-1.2110056e-14
0.052286666
0
0.067916586
1.127589e-14
0.083490533
0
0.10067031
0
0.11930826
0
0.13960669
0
0.16214282
0
0.18664569
-1.8213552e-14
0.21329117
0
0.24132138
1.6951173e-14
0.27039751
0
0.30095327
6.2718114e-18
0.33316016
0
0.36713535
0
0.4032713
-9.680701e-18
0.44164553
0
0.48208972
-2.6359907e-14
0.52468989
-6.8894557e-18
0.56897951
-2.4515873e-14
0.61373957
2.3641089e-14
0.65842047
2.2801079e-14
0.70440455
0
0.75346377
0
0.80584986
4.0883291e-14
0.86283653
0
0.010304885
1.2998334e-14
0.021673795
-7.3313507e-18
0.034732022
-1.2102331e-14
0.049060246
0
0.063775487
0
0.078362066
1.0880565e-14
0.09440069
0
0.11173494
0
0.13066769
1.9548486e-14
0.15183577
1.887332e-14
0.17482521
0
0.19992267
0
0.22635921
0
0.25374425
-1.6363131e-14
0.28255933
0
0.31290151
0
0.34472179
-2.9388461e-14
0.37851642
2.834877e-14
0.414575
0
0.45265855
-2.6364642e-14
0.49271179
0
0.53472407
-6.3328182e-18
0.5782187
0
0.62199979
0
0.66574683
2.1989971e-14
0.71102948
0
0.75970803
0
0.81184105
0
0.868557
0
0.0095977293
0
0.020257137
0
0.032545325
1.2101783e-14
0.046007642
1.1684583e-14
0.059864783
0
0.073546146
2.175472e-14
0.088527836
-1.0494676e-14
0.10464648
0
0.12229606
0
0.14217561
0
0.16372711
0
0.18735189
1.756582e-14
0.21227416
0
0.23804481
0
0.26522792
-1.5788521e-14
0.29391573
1.5227139e-14
0.32386069
-1.4690543e-14
0.35543792
0
0.38924853
0
0.42520598
-5.2756086e-14
0.46301178
0
0.50261579
0
0.54397401
0
0.58658796
0
0.62941166
-2.1994534e-14
0.67221901
0
0.71687262
-4.0897693e-14
0.76523942
0
0.81719782
0
0.87384405
4.3802571e-05
0.010483418
0
0.01892587
0
0.030481691
0
0.043121656
-6.4505023e-18
0.05617143
5.4206622e-18
0.069017602
0
0.083018961
-2.0993231e-14
0.09800861
0
0.11446201
0
0.13312635
0
0.15330796
1.820179e-14
0.17553563
0
0.19901925
1.6958056e-14
0.22323955
-1.6363356e-14
0.24886829
1.5789027e-14
0.27603745
0
0.30433385
0
0.33393598
-1.4173399e-14
0.36556765
0
0.39942536
0
0.43520076
2.5437622e-14
0.47269038
0
0.5117931
0
0.55242143
0
0.59418075
2.1999959e-14
0.6360002
0
0.67791012
-2.044959e-14
0.72196698
3.9436161e-14
0.77013115
0
0.82204304
-4.2022124e-18
0.87861007
7.3388677e-05
0.010416556
0.00012585625
0.020563862
0
0.028527805
0
0.040395544
0
0.052682886
-1.1273833e-14
0.064760225
0
0.077846668
1.0498564e-14
0.091790693
1.0127193e-14
0.10713297
9.7777571e-15
0.12464872
-1.8870468e-14
0.14352554
0
0.16442744
0
0.18654775
0
0.2092818
7.056758e-18
0.23341849
-1.5789419e-14
0.25915314
-1.522871e-14
0.28596382
1.4693169e-14
0.31383973
1.4175191e-14
0.34340861
0
0.37512008
-2.6388563e-14
0.40893949
0
0.44455402
-2.4545371e-14
0.48170042
0
0.52023788
-2.2823416e-14
0.56014297
2.200138e-14
0.60098261
-2.1213607e-14
0.64183686
-2.0459784e-14
0.68285868
0
0.72640944
0
0.77443306
0
0.82637668
0
0.88302157
9.0498403e-05
0.010352685
0.00021119344
0.02053657
0.00020250082
0.030809381
0
0.037811935
0
0.049387473
0
0.060753743
0
0.072992488
4.7800985e-18
0.085966156
0
0.10027705
9.7724227e-15
0.11670474
4.6714167e-18
0.13433396
0
0.1539781
0
0.17481647
0
0.19612711
1.6356204e-14
0.21882552
0
0.2431957
0
0.26861555
0
0.29493495
-4.977245e-18
0.32265135
1.367642e-14
0.35225784
0
0.38403887
0
0.4178585
0
0.45328975
-2.3676303e-14
0.49002958
0
0.5279946
2.2007645e-14
0.5671324
-4.253485e-18
0.6070794
-2.0458874e-14
0.64694884
-1.9728218e-14
0.68714645
1.9019064e-14
0.7302106
0
0.77819606
0
0.83028729
-3.410517e-14
0.88699174
9.6843088e-05
0.010296463
0.00026074115
0.020499344
0.00034043922
0.030904438
0.00027330888
0.040536319
-1.1683376e-14
0.046259676
0
0.056978608
0
0.068430981
-4.7270965e-18
0.08050603
-1.012645e-14
0.093863697
0
0.10925764
0
0.12569478
9.1092172e-15
0.1441428
0
0.16377902
0
0.18373478
-1.6363133e-14
0.20504771
-6.9236663e-18
0.22811379
-1.5229779e-14
0.25221515
0
0.27709398
0
0.30316499
-1.3687574e-14
0.33083256
2.6394319e-14
0.36048694
0
0.39238931
0
0.42622933
0
0.46141316
2.2830948e-14
0.49772093
0
0.53507692
0
0.57344578
0
0.6124715
0
0.6514197
0
0.69079328
-1.8343142e-14
0.7334596
-3.0822485e-18
0.78147697
3.4107706e-14
0.83378398
-3.2889314e-14
0.89068264
9.4084102e-05
0.010247904
0.00027925742
0.020460215
0.00042097167
0.030970242
0.00045998876
0.040778894
0.00033418879
0.049256148
0
0.053402262
0
0.064136899
0
0.075384006
1.0126148e-14
0.087858125
4.976819e-18
0.10227353
0
0.1175721
0
0.13488613
-1.7563042e-14
0.15339459
0
0.17206821
0
0.19204767
0
0.21386667
0
0.23671425
0
0.26022693
0
0.28480125
0
0.31074246
-2.6398832e-14
0.3383478
1.2730155e-14
0.36814025
0
0.4002606
0
0.43405777
0
0.46895278
0
0.50478701
0
0.54151338
0
0.57910578
-1.9739745e-14
0.61726303
1.9030459e-14
0.65526024
-1.8659125e-18
0.69388112
1.4174918e-18
0.73619532
3.4108891e-14
0.78434177
0
0.83694753
3.1713714e-14
0.89398047
8.3867783e-05
0.010207524
0.00027142051
0.020418989
0.00045140327
0.031015854
0.00056932938
0.040975487
0.00056274655
0.049703184
0.00038239387
0.056496254
0
0.060074858
0
0.070575575
0
0.08223103
-9.7764722e-15
0.095720339
9.4336533e-15
0.10993859
0
0.12617737
0
0.1436275
3.709515e-18
0.16109164
1.6362734e-14
0.17979234
0
0.20041681
-1.5237002e-14
0.22206968
0
0.24427892
0
0.26745557
0
0.29185094
0
0.31761843
1.2732874e-14
0.3452648
0
0.37538631
1.1848235e-14
0.40771659
0
0.4413928
-2.2028798e-14
0.47592605
2.1240107e-14
0.51125322
0
0.54734975
0
0.58419571
0
0.62144746
1.8352149e-14
0.65855696
-1.5656014e-18
0.69646045
-3.4115623e-14
0.7385167
3.2892905e-14
0.78683328
0
0.83974948
0
0.89699509
6.778941e-05
0.01017579
0.00024197613
0.020376249
0.00043915371
0.03104202
0.00061100271
0.041136803
0.00069701312
0.050083515
0.00064444202
0.057196288
0.00041982445
0.063077657
0
0.066033976
1.0130269e-14
0.076956425
0
0.089565532
9.4289151e-15
0.10276521
4.7621603e-18
0.11798879
8.7856622e-15
0.13444492
8.4744191e-15
0.15076982
8.1812461e-15
0.16824856
0
0.18773196
0
0.20824583
0
0.22920549
2.8367611e-14
0.25106115
-1.3682937e-14
0.27404458
-4.0819451e-18
0.29819327
1.2735334e-14
0.32388284
1.228061e-14
0.35184361
-1.184785e-14
0.38234746
0
0.41476391
0
0.44822255
0
0.48235614
-2.0490766e-14
0.51715792
0
0.5526437
0
0.58873276
0
0.62511444
1.881625e-18
0.66134417
0
0.69861841
1.645003e-14
0.74047564
-1.9381848e-18
0.78899972
3.0585373e-14
0.84225653
2.9492448e-14
0.89959476
4.7422093e-05
0.010152668
0.00019552091
0.020332537
0.00039169808
0.031048858
0.00059489672
0.041263759
0.00074856742
0.050412862
0.00079886514
0.057807263
0.00070773681
0.063975694
0.00044931299
0.068795474
0
0.071987486
0
0.083780465
0
0.096028403
0
0.11029179
4.6589209e-18
0.12581541
0
0.14106952
-3.4025054e-18
0.15738655
3.6709617e-18
0.17578193
1.5230817e-14
0.19520998
0
0.21497
-1.4187092e-14
0.23556825
1.3688664e-14
0.25723401
4.0645318e-18
0.27993308
-1.2741235e-14
0.30391503
3.5126903e-18
0.32980743
-3.5609799e-18
0.35821799
0
0.38902367
0
0.42139645
0
0.45458221
0
0.48827488
0
0.52255611
0
0.55743112
0
0.59277177
1.770117e-14
0.628278
1.6140817e-18
0.66370912
-1.6453329e-14
0.70043581
0
0.74215715
-3.0590585e-14
0.79088808
0
0.84442411
2.8440729e-14
0.90189653
2.4310516e-05
0.010137611
0.00013668434
0.02028808
0.00031655026
0.031036177
0.00053099296
0.041356371
0.00072939384
0.050690419
0.000858748
0.058347612
0.00087751291
0.064762003
0.0007568444
0.069857197
0.00047363634
0.074480038
0
0.078319169
0
0.089710624
0
0.10306868
-4.7266148e-18
0.11770918
3.6227364e-18
0.13196159
0
0.14717741
7.8913644e-15
0.16453406
7.6189572e-15
0.18293091
0
0.20153743
-2.8370423e-14
0.22093287
0
0.24136011
0
0.26272206
0
0.28519993
-1.2293135e-14
0.30929609
-1.1854257e-14
0.33563991
-3.5218537e-18
0.36446579
-1.102903e-14
0.39538388
-1.0631803e-14
0.42763787
0
0.46048452
0
0.49372561
0
0.52747779
0
0.5617412
0
0.59634701
1.706995e-14
0.63103022
0
0.66570881
1.5865378e-14
0.70198953
0
0.74361859
0
0.79253609
0
0.84631122
2.742649e-14
0.90381504
0.010130408
0
6.9999183e-05
0.020243389
0.00022124237
0.03100454
0.00042941076
0.04141459
0.00065158434
0.050915032
0.00083751602
0.058814439
0.00094359552
0.065454745
0.00093772184
0.070771566
0.00079722126
0.075758598
0.00049698936
0.080471562
0
0.083772366
0
0.096303202
0
0.11010031
-3.5982476e-18
0.12341593
8.180885e-15
0.13759401
0
0.15395691
0
0.17137278
-7.3491408e-15
0.18887351
0
0.20711861
0
0.22637481
-1.3209771e-14
0.24648383
1.2741381e-14
0.26759983
0
0.29014949
0
0.31463225
0
0.34140398
-3.4055002e-18
0.37047633
-3.2427759e-18
0.40142994
2.9666253e-18
0.43348121
0
0.4659694
0
0.49873387
0
0.53194867
0
0.56562318
0
0.59952335
-1.7652136e-18
0.63339793
1.5870252e-14
0.66742709
-1.530021e-14
0.70336179
0
0.74492469
0
0.7939589
0
0.84788853
2.644841e-14
0.90545073
0.020198899
0
0.010130378
-2.4310375e-05
0.00011324788
0.030955455
0.0003002889
0.041438959
0.00052739289
0.051086192
0.00074887231
0.059205825
0.00092054943
0.066051765
0.0010075567
0.071566843
0.0009870084
0.076862942
0.00083627603
0.0820054
0.00051638981
0.085491906
0
0.089957746
0
0.10296131
0
0.11540073
-3.2569868e-18
0.12860498
-7.89122e-15
0.14402152
0
0.16050091
7.349279e-15
0.17694581
2.521047e-18
0.19408964
0
0.21223819
0
0.2311655
-1.2746563e-14
0.25100791
0
0.27217504
0
0.29504486
-1.1443043e-14
0.31991838
-1.1036443e-14
0.34701656
-3.292277e-18
0.3762534
0
0.40715151
0
0.43897029
0
0.47105187
0
0.5033227
1.7721962e-14
0.53600912
0
0.56911695
1.6466678e-14
0.60233222
0
0.63545889
0
0.66894029
-1.4754253e-14
0.70460483
0
0.74610109
0
0.79518073
0
0.84921474
0
0.90672915
0.030889707
0
0.020155165
-6.9797651e-05
0.010136969
-4.7416369e-05
0.00015379158
0.041430406
0.00036914381
0.051203479
0.00060669037
0.059518637
0.0008233785
0.066552064
0.00098228302
0.072245729
0.0010597136
0.077818327
0.0010350481
0.083333245
0.0008687841
0.087284631
0.00053344311
0.091264559
0
0.096229812
0
0.1078871
0
0.12018567
-3.8784161e-18
0.13469549
3.7429263e-18
0.1502804
-7.3493989e-15
0.16572008
-2.514504e-18
0.18181283
2.3416283e-18
0.19891175
0
0.21672257
0
0.23536237
0
0.25525421
0
0.27670921
1.1445988e-14
0.29991645
0
0.32511339
0
0.35249367
0
0.3818269
0
0.41259268
9.5431333e-15
0.44410764
-1.8393867e-14
0.47576082
0
0.50752478
1.7090196e-14
0.53969378
0
0.57225836
0
0.6048183
-1.530839e-14
0.63727602
1.4757559e-14
0.67030927
-7.1939221e-19
0.70577545
-1.3717928e-14
0.74718257
-2.6453782e-14
0.79621352
0
0.85026741
0
0.90776187
0.041389271
0
0.030810776
-0.00011270484
0.020112386
-0.00013589553
0.010149921
-6.7760935e-05
0.00018922749
0.051266724
0.00042503371
0.059750876
0.00066727887
0.066954184
0.00087815627
0.072811669
0.0010324512
0.078626998
0.0011108969
0.084479531
0.0010750922
0.088845302
0.00089746049
0.093356811
0.00055128614
0.097078509
0
0.10080764
0
0.11231213
-7.8950295e-15
0.12595328
0
0.1406768
2.8864578e-18
0.15516096
-7.0921571e-15
0.17025272
-6.846216e-15
0.18635811
2.0368892e-18
0.2031153
0
0.22061566
0
0.23930866
-1.1867752e-14
0.25948218
0
0.28123224
1.1043188e-14
0.30470521
-3.3120844e-18
0.33025036
2.0538651e-14
0.35786907
-3.0867907e-18
0.38716713
0
0.41774642
2.4905765e-18
0.44893058
0
0.48010894
0
0.51136823
1.6480563e-14
0.54303176
0
0.57506811
3.0625896e-14
0.60703426
1.4760538e-14
0.6389157
-1.4229897e-14
0.67158561
-6.9464118e-19
0.70689763
1.3227943e-14
0.74816459
2.5509255e-14
0.79707831
0
0.85109734
0
0.90850595
0.051276289
0
0.041323512
-0.0001531762
0.030719552
-0.00021913438
0.020070572
-0.00019382428
0.010169642
-8.3801736e-05
0.00021806053
0.059901343
0.00046767197
0.067256859
0.00071143484
0.07326816
0.00092240171
0.079292889
0.0010818879
0.085444161
0.0011537369
0.090193311
0.0011105478
0.095190212
0.00092735384
0.099498717
0.00056255646
0.10111543
0
0.10492414
0
0.11776716
0
0.1316557
-2.8798894e-18
0.14523395
2.4880884e-18
0.15937712
0
0.17454072
0
0.19030275
-6.3734225e-15
0.2067246
0
0.22428584
0
0.24326656
-1.1451153e-14
0.26371603
0
0.28566089
0
0.30944127
-1.0275036e-14
0.33534732
3.2406002e-18
0.36309956
0
0.39230313
9.2062659e-15
0.42264208
8.87431e-15
0.45343025
0
0.4841286
0
0.51487747
0
0.54603663
0
0.57759062
0
0.60903158
1.423348e-14
0.64041813
0
0.67280318
-1.323112e-14
0.70797953
1.2756024e-14
0.74907017
-2.4600079e-14
0.79776061
2.3720548e-14
0.85169253
0
0.90904219
0.059969066
0
0.051244809
-0.00018883022
0.041234471
-0.00029790731
0.030614485
-0.00031207082
0.020030384
-0.00023919132
0.010196217
-9.3949917e-05
0.00024003919
0.067460551
0.0004985402
0.073617081
0.00074690582
0.079819344
0.00096617965
0.086228308
0.0011233846
0.091329053
0.0011916601
0.096776409
0.0011475011
0.10160582
0.00094633538
0.103847
0.00056641308
0.10468527
0
0.11007686
0
0.12318167
0
0.13590437
-7.0973187e-15
0.14914896
2.404758e-18
0.16342379
0
0.17824687
-6.3773609e-15
0.19364735
-1.23022e-14
0.21013715
0
0.22799729
0
0.24725621
0
0.26784187
0
0.290017
0
0.31422326
9.9089316e-15
0.34043402
0
0.36819533
-9.2167848e-15
0.39722791
8.8791365e-15
0.4272747
-8.5584028e-15
0.45764331
0
0.48783267
0
0.51806369
-1.5327137e-14
0.54874524
0
0.57985536
1.4237824e-14
0.61084489
0
0.64181471
1.3232852e-14
0.67397013
-2.5515977e-14
0.70902561
1.2300955e-14
0.74984749
2.3722026e-14
0.79827275
0
0.85209878
2.2057577e-14
0.90933182
0.067564136
0
0.059969527
-0.00021793869
0.051173637
-0.00036761541
0.04111755
-0.00042438074
0.030496902
-0.00038441355
0.019991833
-0.00026752618
0.010228774
-9.6619901e-05
0.0002559024
0.073859743
0.00052317892
0.080209707
0.0007819343
0.086832269
0.0010029526
0.092251671
0.0011602354
0.09811166
0.001231287
0.103429
0.0011710126
0.10622878
0.00095310318
0.10775187
0.00057080296
0.10926929
7.6155237e-15
0.11517858
0
0.12713983
-7.0924829e-15
0.13953908
-2.4280737e-18
0.15296835
6.6073564e-15
0.16690869
0
0.18134556
-6.1524946e-15
0.19682014
5.936474e-15
0.2136206
1.1451961e-14
0.23176948
0
0.25112754
0
0.27187098
2.0561786e-14
0.29444309
9.9164259e-15
0.31905614
0
0.34543047
0
0.37311917
0
0.40194698
8.5632954e-15
0.43165904
8.255516e-15
0.4615712
0
0.49123986
0
0.52095703
-2.0924436e-18
0.55117465
0
0.58189362
0
0.6124891
1.3235025e-14
0.64311685
7.3228309e-19
0.67509405
-6.0470589e-19
0.70997818
1.1862588e-14
0.75050667
0
0.79861766
0
0.85231179
2.1271292e-14
0.90945259
0.073995296
0
0.067587649
-0.00024012929
0.059902576
-0.00042456747
0.05105355
-0.00052420679
0.040975288
-0.0005228671
0.030367341
-0.00042912048
0.019954278
-0.00027445562
0.010267049
-9.0190255e-05
0.00026848036
0.080465759
0.00054740791
0.087257126
0.00081144685
0.092960498
0.0010357588
0.099190918
0.0011987435
0.10496124
0.0012564538
0.10829388
0.0011796194
0.11044022
0.00096085124
0.11267541
0.00057676596
0.11375638
0
0.11886486
7.09257e-15
0.13051911
0
0.1431462
0
0.15625355
-6.3747197e-15
0.16978252
-6.1529895e-15
0.18429542
5.93714e-15
0.20008924
1.7412438e-18
0.2171951
0
0.23541593
0
0.25486555
-1.0285848e-14
0.275942
0
0.29894676
0
0.3238717
0
0.35030997
0
0.37787493
-8.5709605e-15
0.40645502
-8.2606855e-15
0.43580998
7.9610333e-15
0.46523863
1.5340881e-14
0.49436317
0
0.52356895
0
0.55335316
-1.3734003e-14
0.58370869
-1.3238642e-14
0.61398731
0
0.6443394
0
0.67612677
-1.1864557e-14
0.71084011
0
0.7510227
0
0.79882244
0
0.85236815
2.051316e-14
0.90937403
0.08058673
0
0.074048742
-0.00025618052
0.067529467
-0.00046801074
0.059752835
-0.00060573494
0.050888634
-0.00064654406
0.04080939
-0.00058381249
0.030226857
-0.00043926742
0.01992058
-0.00025557479
0.010313588
-7.3084488e-05
0.00028071768
0.087504136
0.00056781854
0.093454161
0.00083785558
0.10001061
0.0010698916
0.10619617
0.0012231536
0.11003473
0.0012659978
0.1127745
0.0011894502
0.11567205
0.00097072897
0.11751057
0.00057782741
0.11681948
-7.0949636e-15
0.12201493
6.8470324e-15
0.13392645
0
0.1462481
-1.6828135e-18
0.15892222
-6.1517991e-15
0.17252682
-5.936021e-15
0.18736279
0
0.20347963
5.5278995e-15
0.22063706
0
0.23889723
1.0288912e-14
0.25862547
0
0.28011464
9.567233e-15
0.30350951
9.2283724e-15
0.32865268
8.8937712e-15
0.35508029
0
0.38246768
1.6526843e-14
0.41078114
-7.966187e-15
0.43973385
0
0.46864516
0
0.49721758
0
0.52592226
1.373974e-14
0.55527977
0
0.58533145
0
0.6153492
-1.2307396e-14
0.64545988
1.1865684e-14
0.67707906
-1.1440654e-14
0.71157506
1.1031351e-14
0.75142988
-2.1273797e-14
0.79888255
0
0.85226411
0
0.90916449
0.087572918
0
0.080605154
-0.00026873026
0.074017138
-0.0004995941
0.067368029
-0.00066798246
0.059521416
-0.00074741055
0.050681923
-0.00072269931
0.04062187
-0.00059776438
0.030076598
-0.00040810345
0.019890465
-0.00020650045
0.010371651
-4.360653e-05
0.00029104228
0.093733134
0.00058614315
0.10057109
0.00086526125
0.10712928
0.0010917412
0.11144725
0.0012327538
0.11474842
0.0012768522
0.11827705
0.0012018212
0.12080666
0.00097270507
0.12091159
0.00057344361
0.11934508
0
0.12522319
0
0.13686061
6.3753102e-15
0.14873296
6.1521753e-15
0.16147647
5.9382206e-15
0.17540274
0
0.19058108
5.527123e-15
0.20673413
1.5684104e-18
0.22388325
0
0.24238378
0
0.26248891
0
0.28436802
0
0.30810154
0
0.33337232
-8.581433e-15
0.3597011
0
0.38690511
-2.4655508e-18
0.41491265
0
0.44343175
-7.4008036e-15
0.47179566
0
0.49980834
0
0.52801328
0
0.55698551
0
0.5867647
0
0.61658265
0
0.64647848
-1.1441593e-14
0.6778813
0
0.71220223
0
0.7516959
2.0515269e-14
0.79882108
0
0.85203525
0
0.90878281
0.093796809
0
0.08750868
-0.00028056521
0.080518005
-0.00052411451
0.073865325
-0.00071355897
0.067101844
-0.00082446683
0.059209494
-0.00083565797
0.050433935
-0.00074081116
0.040411475
-0.00055540318
0.029916138
-0.00032884741
0.019865817
-0.00012282513
0.010437077
0
0.00030035671
0.10087489
0.00060515661
0.10776085
0.00088290371
0.1125266
0.0011005581
0.11635781
0.001243535
0.12048087
0.0012901079
0.12367693
0.0012043143
0.12450788
0.00096556802
0.12374974
0.00056754991
0.12190391
0
0.12798755
0
0.13918444
-6.1524976e-15
0.15111264
-1.7135913e-18
0.16417669
1.8199521e-18
0.17845731
-5.5296272e-15
0.19365969
0
0.20976376
0
0.22712587
0
0.24597262
-9.5748609e-15
0.2664262
0
0.28867134
0
0.3126788
-8.5832831e-15
0.33798525
-3.0150813e-18
0.36419496
0
0.39117735
7.6824883e-15
0.41884571
-7.4074852e-15
0.4468827
0
0.47468742
0
0.50213562
0
0.52986955
-1.2800443e-18
0.55847314
1.2314163e-14
0.58803235
1.1869717e-14
0.61766343
0
0.64732109
1.1033709e-14
0.67854755
-1.0638841e-14
0.71266363
0
0.75185113
1.9784012e-14
0.79864127
0
0.85167706
-1.8397965e-14
0.90829308
0.10092326
0
0.093695776
-0.00029051232
0.087312178
-0.00054679724
0.080283917
-0.00074870384
0.073587736
-0.00088138392
0.066728497
-0.0009219674
0.058815094
-0.00085664013
0.050144731
-0.00068911396
0.040180171
-0.00044760436
0.029744366
-0.00019498072
0.01983889
0
0.0095586088
0
0.00030999015
0.10809264
0.00061748668
0.11326894
0.00089024774
0.11759856
0.001110321
0.12227661
0.0012564952
0.12610869
0.0012929648
0.12764223
0.0011956632
0.1276243
0.00095551693
0.12657549
0.00056022091
0.12401923
0
0.13016504
0
0.14140121
0
0.15364474
5.7293768e-15
0.16707397
1.7337728e-18
0.18137049
-5.3360703e-15
0.19648615
-5.1482582e-15
0.21278353
-4.9649852e-15
0.23047633
0
0.24962394
0
0.27041959
-3.4923728e-18
0.29305089
0
0.3172507
8.2820191e-15
0.34249948
-7.9823805e-15
0.36853875
0
0.39526927
-7.4127086e-15
0.42254834
0
0.4500899
0
0.47730938
0
0.50421186
0
0.53149307
0
0.55976864
0
0.58910785
0
0.61857813
-4.8118493e-19
0.64799579
0
0.67899415
-2.1076249e-19
0.71299083
9.8926296e-15
0.75187532
0
0.79837945
0
0.85118702
0.0082847738
0.89935568
0.10812693
0
0.10077255
-0.00029958086
0.093431421
-0.00056576087
0.086942632
-0.00078056812
0.079895996
-0.00092495925
0.073178996
-0.0009863357
0.066246634
-0.00094509662
0.058342363
-0.00079681244
0.049812275
-0.00055595386
0.039925085
-0.00026532358
0.029554228
0
0.018217885
0
0.010267633
1.3475997e-14
0.00031628499
0.1136732
0.00062276614
0.11846536
0.00089827851
0.12365914
0.0011218957
0.12809154
0.0012593825
0.13030306
0.0012838833
0.13099832
0.0011831521
0.1306818
0.00094301159
0.12894158
0.00055070422
0.12557919
0
0.13223375
0
0.14376831
0
0.15638595
-1.7466899e-18
0.16982458
1.5573902e-18
0.18400613
5.1477197e-15
0.1993001
4.966249e-15
0.21591967
9.5829497e-15
0.23387756
0
0.25332466
-8.911914e-15
0.27453373
0
0.29748733
0
0.32173984
0
0.34686172
0
0.37271195
0
0.39914853
-1.4295466e-14
0.42601516
-1.6779571e-18
0.45301776
6.635955e-15
0.47966947
0
0.50604396
0
0.5329096
0
0.56085521
0
0.59001851
1.1037439e-14
0.61930879
0
0.64843783
0
0.67926646
-7.8419515e-20
0.71313517
-1.9080087e-14
0.75182266
0
0.79796836
0.016064618
0.84276228
0.0075394534
0.89105898
0.11373903
0
0.10793183
-0.00030896565
0.10042383
-0.00058312523
0.092953879
-0.00080707375
0.086400489
-0.00096375713
0.07934911
-0.0010353415
0.072636985
-0.0010119394
0.065657719
-0.00087892142
0.057789307
-0.00064264808
0.049433588
-0.00032993771
0.039636704
0
0.027283306
0
0.019465967
-1.3007696e-14
0.011027282
7.47777e-18
0.00031905
0.11895537
0.00062843612
0.12462465
0.00090759974
0.12961677
0.0011246074
0.13248149
0.001250728
0.13386378
0.0012703511
0.13426124
0.0011675457
0.13326577
0.00092675155
0.13076721
0.00053969689
0.12704658
-5.9393981e-15
0.13445322
0
0.14635055
0
0.15897899
5.3360267e-15
0.17227926
-5.148622e-15
0.18662628
1.6304922e-18
0.20224157
4.7920458e-15
0.21909945
-9.2462797e-15
0.23730723
0
0.25714508
0
0.27875007
0
0.30189562
0
0.3260912
-7.7005896e-15
0.35105167
0
0.37668125
-7.1530115e-15
0.40279738
0
0.42921159
-1.5329548e-18
0.45568165
1.1438645e-18
0.48176651
0
0.50765054
0
0.53410529
1.1452393e-14
0.56176108
0
0.59074211
0
0.61985625
1.0261441e-14
0.64866849
0
0.67928641
9.5406749e-15
0.71314837
6.12552e-20
0.75160555
0.023395496
0.79005336
0.014618319
0.8349212
0.0067435798
0.88341772
0.11906467
0
0.11354545
-0.00031517783
0.10751108
-0.0006011789
0.099820943
-0.0008313751
0.092265777
-0.00099579471
0.08568294
-0.0010782128
0.078639925
-0.0010624261
0.07196042
-0.00094180922
0.064958873
-0.00070867054
0.057160497
-0.00038127811
0.048992199
0
0.036935515
0
0.029076659
0
0.020799889
1.3008344e-14
0.011846674
-7.512315e-18
0.00032198655
0.12517147
0.00063493223
0.13068151
0.00090986702
0.134168
0.0011170135
0.13621467
0.0012374704
0.13730282
0.001253374
0.13704772