/*--------------------------------*- C++ -*----------------------------------*\
| =========                 |                                                 |
| \\      /  F ield         | OpenFOAM: The Open Source CFD Toolbox           |
|  \\    /   O peration     | Version:  v2012                                 |
|   \\  /    A nd           | Website:  www.openfoam.com                      |
|    \\/     M anipulation  |                                                 |
\*---------------------------------------------------------------------------*/
FoamFile
{
    version     2.0;
    format      ascii;
    class       volScalarField;
    location    "118.517163517870358";
    object      p;
}
// * * * * * * * * * * * * * * * * * * * * * * * * * * * * * * * * * * * * * //

dimensions      [0 2 -2 0 0 0 0];


internalField   nonuniform List<scalar> 
9200
(
0.0027748684
0.0027748037
0.0033067988
0.0026408618
0.0036215348
0.0062973426
0.0025798703
0.0041349054
0.0067421015
0.0080589951
0.0024047119
0.0050090604
0.0073128773
0.0087072298
0.0099271402
0.002220542
0.005980548
0.0082632993
0.0094598058
0.010600623
0.011305202
0.0019591673
0.0070912746
0.009193953
0.010590007
0.011489089
0.012027149
0.012335252
0.0016958865
0.0082155476
0.010308049
0.011856988
0.012755988
0.013069894
0.013104974
0.012965866
0.0013168273
0.0092596425
0.011417537
0.013231809
0.014237866
0.014496989
0.0142939
0.013784879
0.013213592
0.00086199588
0.010333652
0.012464036
0.014647012
0.015801221
0.016223625
0.015884841
0.01511027
0.014074833
0.013083103
0.00052980586
0.011502588
0.013473667
0.015991632
0.017424668
0.018041667
0.017861319
0.016868568
0.015519899
0.013973233
0.012592932
0.00028567582
0.012619798
0.014398661
0.017255115
0.018958548
0.019957718
0.019963828
0.019103245
0.017434218
0.015513605
0.013493115
0.011767391
-8.3454337e-06
0.013619166
0.015216533
0.018380709
0.020380163
0.021788588
0.022223304
0.021521689
0.019916837
0.017557942
0.015096285
0.012654456
0.010639774
-0.00027480791
0.014458235
0.015941808
0.019356734
0.02160258
0.023497342
0.024433949
0.02418252
0.022657798
0.020258469
0.017229307
0.014281249
0.011487583
0.0092489391
-0.0004486964
0.015159641
0.016624688
0.020159532
0.02259033
0.024967056
0.026552893
0.026870267
0.025748085
0.02329956
0.020095684
0.016448953
0.013094057
0.010030228
0.007639347
-0.00047849044
0.015725796
0.01725763
0.020800365
0.023306378
0.026131056
0.028441938
0.02954592
0.028976132
0.026808224
0.023382004
0.019409824
0.015233017
0.011570319
0.0083271342
0.0058575926
-0.00029755907
0.016192164
0.017861469
0.021295063
0.023733494
0.026914165
0.030013395
0.032061376
0.032319794
0.030588164
0.02725251
0.022857983
0.018202865
0.013612314
0.0097548806
0.00642655
0.0039522109
5.1330926e-05
0.016557288
0.01848393
0.021679613
0.023870263
0.027245353
0.031168023
0.034324492
0.035639068
0.034646503
0.03153262
0.026992564
0.021707152
0.016497283
0.01163093
0.0076985574
0.0043793624
0.0019702218
0.00053694926
0.01688284
0.019132
0.022000604
0.023730266
0.027078281
0.031782499
0.036218222
0.038845257
0.03887164
0.036262528
0.031663196
0.025975424
0.019938694
0.014335605
0.0093430721
0.0054562532
0.00223594
-4.3963651e-05
0.0016241284
0.01730555
0.019893362
0.02231249
0.02334592
0.026348282
0.031789525
0.037615713
0.041778414
0.043211627
0.041360407
0.036944036
0.030880789
0.024189632
0.017590997
0.011775971
0.0068097873
0.0030836422
4.4906819e-05
-0.0020490357
0.003205069
0.017803984
0.020787056
0.022693349
0.022773971
0.025020336
0.030966587
0.038564475
0.044293039
0.047586592
0.046802422
0.04278407
0.036526783
0.029142933
0.021665669
0.014726482
0.0088881392
0.0040951591
0.00063533835
-0.0021487193
-0.0040041955
0.0048595076
0.018504425
0.021559668
0.023179202
0.02207866
0.023058181
0.029294777
0.038524377
0.046608969
0.05202335
0.052536535
0.049194858
0.042891189
0.034924114
0.026466886
0.018470703
0.011426131
0.0057479213
0.001263051
-0.001837238
-0.004303249
-0.0058789426
0.0062499344
0.019343415
0.022395957
0.023838588
0.021327794
0.020416167
0.026738361
0.037494799
0.048632189
0.055865769
0.058503532
0.056157028
0.050017709
0.041533295
0.032132785
0.022924484
0.014700175
0.0077815627
0.0024327113
-0.0016256022
-0.0042871907
-0.0063830738
-0.007657076
0.0075127085
0.019929368
0.023569503
0.024669208
0.020614321
0.017066533
0.023070338
0.035678666
0.04960362
0.059501773
0.064592764
0.063647009
0.057916481
0.049037862
0.038676298
0.02822722
0.018629042
0.010467325
0.0038885191
-0.0009829896
-0.0045148541
-0.006673639
-0.0083590818
-0.0093044451
0.0090867658
0.02041848
0.025232827
0.025625168
0.020014206
0.012969572
0.018166348
0.032652495
0.049490522
0.063154627
0.070802113
0.071640926
0.066602913
0.057471096
0.046176457
0.034393794
0.023343642
0.013722735
0.0058931462
-0.00015986462
-0.00443033
-0.0073551914
-0.0089607866
-0.01020449
-0.01076551
0.010922922
0.020927761
0.027331451
0.026658847
0.019589884
0.008087083
0.01185354
0.028259575
0.048454496
0.066162163
0.077106462
0.080115355
0.076077772
0.06687194
0.054678773
0.041502048
0.028849752
0.017661586
0.0083607904
0.0010968364
-0.0042773412
-0.0078482318
-0.010103878
-0.011117957
-0.01189527
-0.012081771
0.013014845
0.021426506
0.029542882
0.027646553
0.019397318
0.0023872445
0.0039355852
0.022341417
0.046223702
0.068501428
0.083357943
0.089018777
0.086331469
0.077262632
0.064234264
0.049594624
0.035208902
0.022271358
0.011383009
0.0026982655
-0.0038114936
-0.008387781
-0.011184233
-0.012724806
-0.013122539
-0.01342031
-0.013375218
0.015324248
0.021705246
0.031850715
0.028484412
0.019445755
-0.0041507353
-0.0058194667
0.014712351
0.042607111
0.070025973
0.089445329
0.098280119
0.097326575
0.088644415
0.074874419
0.05871977
0.042445307
0.027584081
0.014922716
0.0047124648
-0.0031217822
-0.0087353339
-0.01242653
-0.014394789
-0.01518906
-0.014958824
-0.014770968
-0.014488773
0.017814175
0.021792711
0.03406552
0.029481666
0.019641309
-0.011602408
-0.017698226
0.0051236201
0.037366955
0.070587189
0.095252936
0.10779354
0.10899279
0.1009866
0.086609071
0.068906339
0.050586721
0.033589636
0.018973174
0.0070769986
-0.0021606244
-0.0089753796
-0.013594429
-0.016340623
-0.017444709
-0.017474466
-0.016610896
-0.015929074
-0.015221105
0.020302354
0.021481634
0.035987394
0.030477667
0.019484915
-0.019906623
-0.032046626
-0.0067173841
0.030220482
0.069906668
0.1006495
0.11743665
0.1212217
0.11421952
0.099413559
0.080163437
0.059642001
0.040276073
0.02347655
0.009741444
-0.001012062
-0.0090743579
-0.014762117
-0.01832469
-0.020087983
-0.020306019
-0.019563586
-0.018064951
-0.016906589
-0.015668839
0.022759476
0.020742946
0.037124703
0.031016847
0.018840125
-0.028958516
-0.04902083
-0.021100418
0.020977061
0.067775716
0.10543441
0.12705637
0.13386722
0.1282264
0.11321997
0.092467374
0.069603741
0.047609762
0.028361488
0.012592906
0.00023309453
-0.0091288576
-0.015901231
-0.020405121
-0.022876948
-0.023635888
-0.022957421
-0.021443073
-0.019313239
-0.017710744
-0.015992003
0.025146527
0.019314919
0.037484492
0.030796296
0.017682441
-0.038444533
-0.068557299
-0.038156848
0.0094720306
0.063878226
0.10943765
0.13646936
0.14674386
0.14283996
0.12790876
0.10575363
0.080436429
0.055542696
0.033528718
0.015488432
0.0014086544
-0.0092597322
-0.017108402
-0.02254901
-0.025848913
-0.027214318
-0.026959509
-0.025383799
-0.023105697
-0.020350703
-0.018316722
-0.016231524
0.027057898
0.016792982
0.036189629
0.029949679
0.015845266
-0.048924371
-0.090759655
-0.057958339
-0.0043222688
0.057930911
0.11245802
0.14548389
0.15962759
0.15784348
0.14330331
0.11990715
0.09207203
0.064003733
0.038859119
0.018241369
0.0022966101
-0.0096746908
-0.018518023
-0.024838797
-0.028957147
-0.031055139
-0.031309843
-0.030040576
-0.027573909
-0.02454946
-0.021193416
-0.018744676
-0.016391322
0.028093217
0.013067857
0.03294502
0.027474158
0.012981773
-0.059822886
-0.11517469
-0.080438644
-0.020175231
0.049608107
0.11430476
0.15383696
0.17226755
0.17297233
0.15917112
0.13475591
0.10439889
0.072899278
0.044209865
0.020630277
0.0026142334
-0.010654767
-0.020358299
-0.027402891
-0.032256358
-0.035090129
-0.035998351
-0.035143804
-0.032866974
-0.029519152
-0.025768543
-0.021842146
-0.018994424
-0.016447564
0.028015969
0.0081755678
0.026911802
0.022984765
0.0095242176
-0.071476894
-0.13929248
-0.10526446
-0.037460348
0.038873155
0.11470788
0.16134671
0.18436427
0.18792683
0.17522559
0.15007162
0.11725768
0.082102346
0.049421489
0.022399928
0.0020183154
-0.012569776
-0.022948132
-0.030463375
-0.035849508
-0.039335168
-0.040930187
-0.040661708
-0.038700833
-0.035431531
-0.031218376
-0.026766564
-0.022304976
-0.019075517
-0.016318919
0.026725857
0.0019240289
0.018019231
0.015070903
0.0061526697
-0.082237992
-0.16293707
-0.13395392
-0.056666318
0.02535406
0.11361429
0.16763819
0.19564643
0.20237526
0.1911417
0.16556823
0.13043792
0.09145602
0.054309255
0.023269414
0.00010584453
-0.015882285
-0.026715809
-0.034342947
-0.039925463
-0.043851184
-0.046074996
-0.046470063
-0.045033544
-0.041968148
-0.0377125
-0.032670701
-0.027546782
-0.022585167
-0.01899569
-0.015996022
0.024347688
-0.0056190046
0.005916611
0.0035454889
0.0016159375
-0.093159156
-0.18535002
-0.16634195
-0.079300664
0.0079838215
0.11088479
0.17261345
0.20575973
0.21599061
0.20655967
0.18092012
0.14367625
0.10076142
0.058676387
0.022930563
-0.0035806013
-0.021151296
-0.032211832
-0.039483295
-0.044773
-0.048769459
-0.051439559
-0.052489144
-0.051706947
-0.049105018
-0.044954747
-0.039721558
-0.033879033
-0.028115743
-0.022688023
-0.018763802
-0.015537378
0.021094489
-0.01464624
-0.0091402829
-0.011308491
-0.0047962701
-0.10407587
-0.21142382
-0.20076492
-0.1055445
-0.011307263
0.10645017
0.17605928
0.21451209
0.22842336
0.22112489
0.19575983
0.156671
0.10978779
0.062294792
0.021066446
-0.0095498633
-0.029036874
-0.040119227
-0.046469648
-0.050799282
-0.054312969
-0.057079457
-0.058665062
-0.05859433
-0.056638308
-0.052869592
-0.047639593
-0.041456882
-0.034847267
-0.02848124
-0.022622117
-0.018390807
-0.01496412
0.016901176
-0.025233524
-0.027214544
-0.029317717
-0.013344378
-0.11556081
-0.2377737
-0.24068974
-0.13621222
-0.030023877
0.10052894
0.17806621
0.22151005
0.23943024
0.23446387
0.20972743
0.16907412
0.11826727
0.064937492
0.017335526
-0.018346764
-0.040298433
-0.051273184
-0.056038961
-0.058557063
-0.060818778
-0.063130176
-0.064969797
-0.065580042
-0.064402513
-0.061259932
-0.05631874
-0.050020731
-0.042919791
-0.035581261
-0.028652186
-0.022397782
-0.017887444
-0.014282669
0.011656588
-0.036842118
-0.048212455
-0.049791634
-0.024003304
-0.12809306
-0.26430272
-0.2809093
-0.175526
-0.05071727
0.094163654
0.17848365
0.22747275
0.24861007
0.24631183
0.22242776
0.18054463
0.12590231
0.06633623
0.01142018
-0.0305574
-0.055794701
-0.06665801
-0.069126615
-0.068746556
-0.068742172
-0.06984029
-0.071431546
-0.072552637
-0.072228117
-0.069919746
-0.065564403
-0.059445286
-0.052097144
-0.044113888
-0.036088756
-0.028638629
-0.022025889
-0.017264461
-0.013503768
-0.048703458
0.0053603625
-0.071267479
-0.071847806
-0.036522181
-0.14152053
-0.2902849
-0.32146254
-0.21722884
-0.075471545
0.080778571
0.17850196
0.23079692
0.25616257
0.25626156
0.2335881
0.19068815
0.1323974
0.066250379
0.0029591741
-0.04676633
-0.076488646
-0.087446741
-0.086850896
-0.082333883
-0.078613831
-0.077576295
-0.078152278
-0.079431764
-0.079922248
-0.078633595
-0.075142203
-0.069541544
-0.062243031
-0.053869471
-0.045044917
-0.036379088
-0.028451479
-0.021517506
-0.016532542
-0.012637404
-0.09533195
-0.060012791
-0.00093424793
-0.09489065
-0.050207046
-0.15524557
-0.31375806
-0.36064988
-0.25871109
-0.1013779
0.062172042
0.17116081
0.23400597
0.26115826
0.2644012
0.24275958
0.19924473
0.13740353
0.064402454
-0.0083049295
-0.067604652
-0.10342534
-0.1150044
-0.11058099
-0.10045578
-0.091471927
-0.086289124
-0.085281551
-0.086164587
-0.087301641
-0.087139212
-0.084802789
-0.080057625
-0.073179336
-0.064707043
-0.055340333
-0.045720654
-0.036462899
-0.028102112
-0.020883711
-0.015702215
-0.011693351
-0.11834977
-0.11993408
-0.070804642
-0.0061398882
-0.06425811
-0.16832537
-0.33312121
-0.39635545
-0.29797666
-0.12920774
0.040843841
0.1599317
0.23071499
0.2656933
0.2697912
0.25008444
0.20571787
0.14070662
0.060544397
-0.022761069
-0.093589126
-0.1377513
-0.15089907
-0.14194538
-0.12446159
-0.10830215
-0.09754092
-0.092999009
-0.092749379
-0.094177826
-0.095163344
-0.094229914
-0.090723795
-0.084647133
-0.07646526
-0.066834269
-0.056514608
-0.046150662
-0.036351635
-0.027602019
-0.020135593
-0.014783964
-0.010681109
-0.079454409
-0.14219588
-0.14393847
-0.080842961
-0.0099455389
-0.17958665
-0.34734135
-0.4262915
-0.333667
-0.15813062
0.017810057
0.14501487
0.22482107
0.26430217
0.27470926
0.25438511
0.21033224
0.14181896
0.054489398
-0.040540742
-0.12543987
-0.1806256
-0.19691039
-0.18290752
-0.15594171
-0.13029464
-0.11163187
-0.10195098
-0.099245199
-0.10039975
-0.10240529
-0.10308001
-0.1011871
-0.09636989
-0.088887815
-0.079387721
-0.068624199
-0.057399438
-0.046345706
-0.036057045
-0.026962934
-0.019284644
-0.013788257
-0.009609402
-0.1857535
-0.096419278
-0.16510468
-0.16612723
-0.089507142
-0.012161161
-0.3551392
-0.44825479
-0.36415232
-0.1858888
-0.006821063
0.12744634
0.21486923
0.2626691
0.27340966
0.25831959
0.21167023
0.14105155
0.045902292
-0.062027799
-0.16334879
-0.2334398
-0.2550127
-0.23574936
-0.19714251
-0.15819696
-0.12957391
-0.11257925
-0.10589108
-0.10584741
-0.10857318
-0.11096265
-0.11105589
-0.10797572
-0.10170417
-0.092755518
-0.081937527
-0.070079153
-0.058003648
-0.046317168
-0.035591474
-0.026197654
-0.018342696
-0.012724677
-0.0084861192
-0.35471378
-0.18469881
-0.11410663
-0.18489116
-0.18479505
-0.096584805
-0.013554102
-0.46026672
-0.38775071
-0.21054894
-0.032258624
0.10663176
0.20188441
0.25621005
0.27514985
0.25592902
0.21290752
0.13677955
0.035054487
-0.087233173
-0.20837138
-0.29716315
-0.32750441
-0.30311222
-0.25043431
-0.1953752
-0.15255909
-0.12561914
-0.11296537
-0.11049142
-0.11338039
-0.1174714
-0.11987567
-0.11904723
-0.11454035
-0.10668448
-0.096227652
-0.084108755
-0.071203815
-0.058337129
-0.046077528
-0.034969135
-0.025319946
-0.017320288
-0.011600815
-0.0073187096
-0.46074751
-0.34435766
-0.17832538
-0.12978674
-0.20025361
-0.19884134
-0.10168801
-0.015753505
-0.4029705
-0.23045321
-0.057765547
0.082877223
0.18468062
0.24746296
0.271706
0.26003171
0.20831793
0.13274423
0.020511845
-0.11643919
-0.26002008
-0.37406913
-0.41690932
-0.38799095
-0.3187369
-0.24321267
-0.18237883
-0.14203806
-0.12092484
-0.11437987
-0.11658793
-0.12218361
-0.12715797
-0.12909288
-0.12697444
-0.12081362
-0.1112683
-0.099285103
-0.085898654
-0.072004607
-0.058411572
-0.045642206
-0.034206054
-0.024341656
-0.016224435
-0.010423428
-0.0061156675
-0.40852513
-0.44853301
-0.32431688
-0.16821567
-0.1410076
-0.20986055
-0.2073511
-0.10361542
-0.019545919
-0.24440432
-0.082502864
0.056279564
0.16315066
0.23306711
0.26320621
0.25865571
0.21407296
0.12440169
0.0060439597
-0.14974329
-0.31983862
-0.46321
-0.52656314
-0.49410467
-0.40539121
-0.30430425
-0.2207488
-0.1630541
-0.13041886
-0.11769566
-0.118024
-0.12469709
-0.13238144
-0.13757556
-0.13850391
-0.1347354
-0.12672413
-0.11541633
-0.10191283
-0.087307134
-0.072490761
-0.058242964
-0.045029548
-0.033315664
-0.023268669
-0.015060763
-0.0092031709
-0.004886635
-0.25181121
-0.40367232
-0.42410544
-0.29520648
-0.15416107
-0.14687577
-0.21288908
-0.20993642
-0.10149229
-0.024162089
-0.10577254
0.027121066
0.13695502
0.21335219
0.25036274
0.25034296
0.21405049
0.1309487
-0.0088844244
-0.18537726
-0.38472579
-0.56745865
-0.65560773
-0.62440554
-0.51491631
-0.38159176
-0.26960306
-0.19011605
-0.14232202
-0.12079095
-0.11762675
-0.12465945
-0.13502764
-0.14391432
-0.14857436
-0.14795964
-0.1422179
-0.13220284
-0.11909434
-0.10409974
-0.088338315
-0.072677544
-0.057851668
-0.044254588
-0.032302618
-0.022104857
-0.013842887
-0.0079567381
-0.003638284
-0.12711234
-0.25313852
-0.388711
-0.38857418
-0.25892513
-0.13628447
-0.14796889
-0.20902262
-0.20687802
-0.095655062
-0.028214955
-0.0042608595
0.10575815
0.18762461
0.2313936
0.2367769
0.20530443
0.13161253
-0.0040640145
-0.21272452
-0.45879278
-0.67921955
-0.8073318
-0.77716473
-0.65043391
-0.479401
-0.33145702
-0.22470764
-0.15775982
-0.12423947
-0.11548704
-0.12180893
-0.13461192
-0.14752026
-0.15658182
-0.15994274
-0.15729139
-0.14931013
-0.13718674
-0.12227376
-0.10584083
-0.089004591
-0.072586519
-0.05725414
-0.04332026
-0.031168718
-0.020869141
-0.012597442
-0.0066948562
-0.0023687045
-0.0375847
-0.1466098
-0.24952105
-0.36406769
-0.34464369
-0.21775141
-0.11523347
-0.14523203
-0.19837888
-0.19882887
-0.087629029
-0.031086142
0.069316631
0.1549586
0.20484069
0.2166878
0.18970775
0.12203265
-0.0043556249
-0.21741017
-0.50936711
-0.81285247
-0.97222296
-0.954356
-0.8095728
-0.59854353
-0.41061417
-0.2690857
-0.17791584
-0.12886273
-0.111906
-0.11602218
-0.13072694
-0.14782738
-0.1619109
-0.17009051
-0.17143666
-0.16632767
-0.15590724
-0.14162076
-0.12493465
-0.10714229
-0.089327158
-0.072234924
-0.056451172
-0.042225828
-0.029938998
-0.019604521
-0.011341139
-0.0054011645
-0.0010082106
0.027307786
-0.073019386
-0.1637589
-0.24232823
-0.33170733
-0.29624602
-0.1743874
-0.092026874
-0.1398951
-0.18309106
-0.18635959
-0.079557174
-0.032959104
0.11426673
0.16934151
0.18772602
0.16673614
0.10380015
-0.015395608
-0.22508041
-0.54113813
-0.90958847
-1.1766768
-1.1489439
-0.99095437
-0.72947178
-0.50550925
-0.3269656
-0.20486545
-0.135632
-0.10743144
-0.10737371
-0.12309415
-0.1443381
-0.16395957
-0.17779597
-0.18409326
-0.1828037
-0.17490488
-0.16191552
-0.14546203
-0.12707216
-0.10802243
-0.08932289
-0.071620666
-0.055438948
-0.041003916
-0.028675717
-0.018335792
-0.010038673
-0.0039607551
0.00044956782
0.064365056
-0.021065048
-0.1100111
-0.17928983
-0.23433932
-0.29565488
-0.24741572
-0.13200291
-0.067738661
-0.1313682
-0.16565997
-0.17218043
-0.071421345
-0.033934417
0.12291363
0.14800494
0.13386663
0.076793402
-0.036739887
-0.24192247
-0.57219574
-1.0046129
-1.354729
-1.40192
-1.126566
-0.86696035
-0.60480262
-0.39582891
-0.24154544
-0.14632752
-0.10284082
-0.096186021
-0.11161765
-0.13667479
-0.16218973
-0.18246324
-0.19469366
-0.19821397
-0.19379919
-0.18287087
-0.16725913
-0.14868782
-0.12869795
-0.10849591
-0.088985656
-0.070736038
-0.054258353
-0.039740328
-0.027414078
-0.016992626
-0.0085059687
-0.0024256651
0.0019744613
0.063404664
0.0033243754
-0.075709532
-0.14847839
-0.1923608
-0.22518659
-0.25972473
-0.20035656
-0.092645237
-0.043532934
-0.11920092
-0.14899219
-0.15541284
-0.063449026
-0.033934771
0.095120137
0.088804968
0.038649325
-0.068366827
-0.27054789
-0.60851403
-1.0929015
-1.570748
-1.6681078
-1.4025014
-1.0365943
-0.71032758
-0.46702429
-0.28638223
-0.16328761
-0.099563781
-0.083053237
-0.096456779
-0.12463279
-0.15617578
-0.18355486
-0.20268197
-0.21209449
-0.21213314
-0.20415784
-0.1901083
-0.17188794
-0.15129788
-0.12982161
-0.10855069
-0.088302744
-0.069630971
-0.053021593
-0.038482296
-0.026044751
-0.015269388
-0.0068888479
-0.00081524606
0.0035634797
0.026197453
-0.011440535
-0.07005402
-0.13739974
-0.18892113
-0.20471709
-0.21435897
-0.22459353
-0.1558878
-0.05663053
-0.021473977
-0.10685927
-0.13105114
-0.13689819
-0.05577071
-0.032820396
0.029176215
-0.012962905
-0.11242348
-0.31093834
-0.65977633
-1.180795
-1.7805896
-2.0220926
-1.6970562
-1.2670582
-0.84751673
-0.5437665
-0.33452416
-0.18630643
-0.099493495
-0.069094557
-0.078054495
-0.10827266
-0.14565886
-0.18064022
-0.20755546
-0.2239197
-0.22950285
-0.22549369
-0.21375476
-0.19652609
-0.17578187
-0.1532926
-0.13042244
-0.10816736
-0.087333437
-0.068447354
-0.051790232
-0.037071309
-0.024108988
-0.013458828
-0.0051825518
0.00086147728
0.0052164299
-0.04775441
-0.062936672
-0.1064167
-0.1577676
-0.2066742
-0.23202636
-0.21870834
-0.20395258
-0.19131071
-0.11735684
-0.025684458
-0.0011675122
-0.095276499
-0.11208523
-0.11744418
-0.049226317
-0.030942206
-0.080026358
-0.17130681
-0.36431372
-0.72599284
-1.2908962
-2.0012809
-2.4032226
-2.128026
-1.5287201
-1.021696
-0.6412855
-0.38781379
-0.21398983
-0.10325846
-0.055858097
-0.057308974
-0.087918561
-0.13064902
-0.17344735
-0.20891149
-0.23325877
-0.24549272
-0.24645158
-0.23799823
-0.22245096
-0.20207219
-0.17892692
-0.1546385
-0.13047161
-0.10741462
-0.086252379
-0.067263169
-0.050351897
-0.034847598
-0.022078016
-0.011545952
-0.0034087081
0.0026058445
0.0069319525
-0.16425959
-0.14612885
-0.17565486
-0.2246369
-0.26110386
-0.28398866
-0.27720887
-0.23359323
-0.19648632
-0.16350746
-0.085790705
0.0018366945
0.014236027
-0.08106001
-0.093363116
-0.098065678
-0.043412588
-0.028701805
-0.24679527
-0.43284906
-0.80580587
-1.4211588
-2.25739
-2.8678987
-2.6125213
-1.9278581
-1.2320858
-0.76154794
-0.45286014
-0.24773768
-0.11207225
-0.044291765
-0.035528019
-0.064348012
-0.11137536
-0.16196505
-0.20649691
-0.23976339
-0.25974416
-0.26676068
-0.26254064
-0.24946703
-0.23009189
-0.20671275
-0.18127105
-0.15529344
-0.13004728
-0.10650361
-0.085156486
-0.065804882
-0.047799398
-0.032503661
-0.019925256
-0.0095701192
-0.0015619388
0.0044156806
0.0087086043
-0.33946255
-0.26861331
-0.2682794
-0.3172628
-0.36865653
-0.38076386
-0.36981122
-0.32445183
-0.2505933
-0.19339306
-0.14208817
-0.057232096
0.02184988
0.02746495
-0.063843094
-0.07494129
-0.078870159
-0.037514143
-0.025745633
-0.51813389
-0.89971658
-1.5657414
-2.5338157
-3.3868104
-3.2381273
-2.4285902
-1.5686987
-0.92414335
-0.53370738
-0.2875093
-0.12885223
-0.036935272
-0.013795885
-0.038715283
-0.088584821
-0.14635216
-0.20029544
-0.24322623
-0.27198471
-0.28614634
-0.28716045
-0.27744868
-0.25974375
-0.23664525
-0.21036928
-0.18275322
-0.155345
-0.12940205
-0.10555294
-0.083705136
-0.062861765
-0.04508045
-0.030018259
-0.017714242
-0.0075198922
0.00035389103
0.0062893388
0.010544599
-0.61967169
-0.45072555
-0.39323162
-0.41928229
-0.49132409
-0.53999712
-0.51718988
-0.46488066
-0.37507216
-0.27171054
-0.19411706
-0.12080214
-0.034347767
0.038672064
0.037366012
-0.046164721
-0.05677849
-0.06143245
-0.031524052
-0.022300323
-1.0082338
-1.7175834
-2.8288771
-3.9316697
-3.9892109
-3.0726541
-2.0030206
-1.1815041
-0.66493406
-0.33803193
-0.14881336
-0.038833943
0.0051587367
-0.012186508
-0.063262897
-0.12738813
-0.19042086
-0.2436367
-0.28207432
-0.30442954
-0.31169874
-0.30624711
-0.29096684
-0.26871338
-0.24199627
-0.21295413
-0.18347067
-0.15509448
-0.12867994
-0.1041464
-0.080318228
-0.0596767
-0.042196589
-0.027483933
-0.015425764
-0.0054006285
0.0023367422
0.0082244153
0.012438088
-1.1281498
-0.73794319
-0.57747911
-0.54169421
-0.60201669
-0.69977193
-0.7393387
-0.67084408
-0.56956778
-0.43077336
-0.29649994
-0.19051163
-0.10303311
-0.014467365
0.050904279
0.044037589
-0.030671632
-0.040511756
-0.047723802
-0.025858436
-0.017916012
-1.8755812
-3.1237084
-4.498168
-4.8600352
-3.8894201
-2.5773653
-1.5094699
-0.8646314
-0.44866253
-0.17436481
-0.04356208
0.015514657
0.01261637
-0.03655584
-0.10579481
-0.17769311
-0.24108745
-0.29003094
-0.32155315
-0.33607412
-0.33579186
-0.32371575
-0.30292757
-0.27621188
-0.24601842
-0.21457512
-0.18378402
-0.1547164
-0.12737713
-0.1002559
-0.076575289
-0.056301929
-0.039274991
-0.02487157
-0.0130677
-0.0032139678
0.0043829532
0.010218514
0.014387443
-2.0376512
-1.2548788
-0.86647396
-0.72113256
-0.71487673
-0.81706516
-0.94246817
-0.96718682
-0.83962415
-0.68223173
-0.49254136
-0.31469287
-0.18675958
-0.087045502
0.00049421498
0.058066129
0.047544747
-0.018022779
-0.028414134
-0.036513086
-0.021702111
-0.012160795
-3.3892589
-5.0913724
-5.787369
-4.8720777
-3.3024558
-1.9368883
-1.1120834
-0.60949765
-0.26978021
-0.050203859
0.021590144
0.031429095
-0.011521695
-0.082679775
-0.16258243
-0.23633333
-0.29598349
-0.33759868
-0.36032194
-0.36609769
-0.35800199
-0.33932599
-0.31309842
-0.28206832
-0.24883263
-0.21566761
-0.1839052
-0.15360105
-0.12291904
-0.095849363
-0.072615433
-0.052904181
-0.036274859
-0.02219144
-0.010641557
-0.00096427635
0.0064890286
0.012269988
0.016390737
-3.6243298
-2.1875662
-1.3770331
-1.0052003
-0.8796208
-0.91085553
-1.062405
-1.21777
-1.2214582
-1.017792
-0.80297178
-0.54295746
-0.32831686
-0.18213894
-0.074226032
0.010736184
0.060385028
0.047645756
-0.0081101691
-0.020658137
-0.027667314
-0.019924897
-0.006700946
-5.6437268
-6.7328278
-5.9766077
-4.1678503
-2.4844856
-1.4151478
-0.81192238
-0.39689098
-0.13326831
0.027242764
0.043458957
0.011326808
-0.061760439
-0.14681211
-0.22943174
-0.30059649
-0.35277805
-0.38461168
-0.39729087
-0.39392369
-0.37799516
-0.35276271
-0.3212447
-0.28641886
-0.25097079
-0.21649048
-0.18309108
-0.14850401
-0.1177327
-0.09119624
-0.068650402
-0.049428932
-0.033209341
-0.019444264
-0.0081529776
0.0013446205
0.0086530333
0.014378493
0.018444371
-6.064237
-3.7861733
-2.3135933
-1.4957596
-1.1489853
-1.0481447
-1.1250792
-1.333147
-1.5202301
-1.495054
-1.2065425
-0.91756447
-0.57886626
-0.33859486
-0.17813301
-0.064527858
0.016224638
0.058356784
0.044655055
-0.0019475465
-0.015710501
-0.021225341
-0.018903058
-0.0038896122
-7.599838
-7.1480003
-5.1687374
-3.1388032
-1.7871806
-1.0451268
-0.57070242
-0.22911071
-0.043028175
0.056306443
0.024297973
-0.038827595
-0.13394552
-0.22217268
-0.30376892
-0.36768902
-0.40925804
-0.42963782
-0.43168254
-0.41910042
-0.39534967
-0.36370835
-0.32752532
-0.28992311
-0.25275147
-0.21612723
-0.17727061
-0.14241168
-0.11226566
-0.08655931
-0.064609757
-0.045892249
-0.030078173
-0.016636585
-0.0056067118
0.0037119128
0.010876618
0.016538523
0.020546307
-8.2763469
-6.2832412
-3.878409
-2.4029567
-1.6079928
-1.2890433
-1.2198756
-1.35029
-1.6203537
-1.8410921
-1.7758655
-1.4004581
-1.0036556
-0.61298824
-0.34791789
-0.17465122
-0.058296895
0.017271925
0.052529225
0.038998469
0.00092710687
-0.012608379
-0.016380346
-0.015746954
-0.003498273
-8.2003642
-6.2134091
-3.8720066
-2.2264975
-1.3119804
-0.77011252
-0.3748802
-0.11460179
0.0034014933
0.040506891
-0.029000105
-0.10991682
-0.21493131
-0.30746322
-0.38230171
-0.43484639
-0.46354655
-0.4716318
-0.46289098
-0.44107245
-0.40964798
-0.37235703
-0.33276856
-0.29297649
-0.25302853
-0.20948235
-0.17013423
-0.13599595
-0.1068405
-0.081849634
-0.060512592
-0.042292388
-0.026888896
-0.013773576
-0.0030027666
0.0061438161
0.013150061
0.018746559
0.022694128
-9.012984
-8.6345047
-6.2890922
-3.9151408
-2.4373482
-1.7001364
-1.4176439
-1.3859562
-1.5764168
-1.9146257
-2.1574817
-2.0686844
-1.5530519
-1.0839715
-0.64125619
-0.35650016
-0.1721387
-0.055618652
0.014149402
0.042648363
0.031468046
0.0010996785
-0.010591425
-0.0127688
-0.010266429
-0.0031355741
-7.1792548
-4.6475461
-2.7172529
-1.6077789
-0.99015327
-0.54904386
-0.23718581
-0.048355937
0.0076062794
-0.01253989
-0.10710345
-0.20703787
-0.31094696
-0.39863698
-0.46155621
-0.49962689
-0.51425164
-0.50977322
-0.49019977
-0.45929863
-0.42113328
-0.37975903
-0.33746919
-0.29412683
-0.24543349
-0.20115409
-0.16261777
-0.12965302
-0.10134598
-0.077089404
-0.056355173
-0.038637759
-0.023647082
-0.010853595
-0.00032916155
0.0086249559
0.015469451
0.020998375
0.024885733
-7.9271402
-9.4323296
-8.6264269
-6.0874621
-3.8357516
-2.4380168
-1.7637327
-1.5267782
-1.5360337
-1.7946704
-2.1915907
-2.4872149
-2.3192865
-1.7055946
-1.1526829
-0.66198445
-0.36445082
-0.17094285
-0.056376668
0.0074713353
0.031819855
0.02285763
-0.00094330158
-0.0096104196
-0.010386146
-0.0060416388
-0.0018744564
-5.367396
-3.2292
-1.9216818
-1.2195171
-0.74530509
-0.38829342
-0.15287687
-0.024486255
-0.029392534
-0.096750282
-0.20860944
-0.31636957
-0.41530616
-0.49141659
-0.53834427
-0.56016328
-0.5602833
-0.54313531
-0.51293098
-0.47409456
-0.43114703
-0.38653789
-0.3397696
-0.2854249
-0.23575488
-0.19236617
-0.15521223
-0.12324381
-0.095807568
-0.07227229
-0.052146537
-0.0349341
-0.020349132
-0.0078572927
0.0023929006
0.011150009
0.017829829
0.023290776
0.027118654
-5.8663402
-8.3062903
-9.3814421
-8.2351835
-5.7061582
-3.6332601
-2.388095
-1.7974181
-1.6085361
-1.659512
-1.9844309
-2.4878295
-2.7927409
-2.5673714
-1.8428063
-1.1951154
-0.67702707
-0.36997511
-0.17121243
-0.060176437
-0.0017483015
0.019741346
0.012719989
-0.0041755178
-0.0099597071
-0.0097852469
-0.0049918711
-0.0001923494
-3.6853147
-2.2295879
-1.4475509
-0.94580041
-0.56440573
-0.29483941
-0.11182096
-0.039295736
-0.099418303
-0.20464067
-0.32721177
-0.43604606
-0.52278031
-0.58166907
-0.6101331
-0.61499515
-0.60044154
-0.57089592
-0.53149452
-0.48718304
-0.44048052
-0.39030594
-0.32976464
-0.27422923
-0.22550296
-0.18373724
-0.14774231
-0.11679771
-0.090215475
-0.067407733
-0.047892288
-0.03117542
-0.01696622
-0.0048136042
0.0051570821
0.013712216
0.020228467
0.025620383
0.029388835
-3.959478
-6.0467851
-8.2156235
-8.8451992
-7.5123235
-5.1690494
-3.3486891
-2.2812231
-1.7936615
-1.6553244
-1.7480295
-2.1728796
-2.7595909
-3.0998248
-2.7905956
-1.952337
-1.1927716
-0.68552079
-0.37090566
-0.17264918
-0.066370434
-0.012595391
0.0071482032
0.0034830803
-0.0078445468
-0.011356983
-0.0094534947
-0.0060992808
0.0010504838
-2.4854935
-1.6550005
-1.1346941
-0.75059393
-0.45836507
-0.23665802
-0.11105477
-0.084934426
-0.2011899
-0.33540681
-0.45994817
-0.5607042
-0.62810414
-0.66594195
-0.67492163
-0.66259629
-0.63369729
-0.59364938
-0.54810775
-0.49957253
-0.44606668
-0.37875444
-0.31687768
-0.26229714
-0.21547237
-0.17504313
-0.14024245
-0.11030045
-0.084579241
-0.062500935
-0.043583314
-0.027321586
-0.01353548
-0.0017305847
0.0079553193
0.016309112
0.022662652
0.027981248
0.031691024
-2.6404557
-3.9818633
-5.9051952
-7.6283916
-7.9098243
-6.5627818
-4.5322586
-3.0188189
-2.1410163
-1.7484253
-1.6664733
-1.8104895
-2.3424871
-3.0311177
-3.3836009
-2.9666299
-2.023791
-1.1577648
-0.67808701
-0.36601933
-0.17471915
-0.074109691
-0.024193102
-0.0051945045
-0.0054360631
-0.011267739
-0.012939466
-0.0099122646
-0.0076351537
0.0012557825
-1.8114974
-1.2940753
-0.92715541
-0.63252426
-0.41204199
-0.22701004
-0.12906269
-0.1631022
-0.3309008
-0.48590078
-0.60104679
-0.68377023
-0.72654759
-0.74150186
-0.73071615
-0.70173704
-0.66084618
-0.61416506
-0.56404841
-0.50734453
-0.43267102
-0.36399678
-0.30302371
-0.25066887
-0.20537143