/*--------------------------------*- C++ -*----------------------------------*\
| =========                 |                                                 |
| \\      /  F ield         | OpenFOAM: The Open Source CFD Toolbox           |
|  \\    /   O peration     | Version:  v2012                                 |
|   \\  /    A nd           | Website:  www.openfoam.com                      |
|    \\/     M anipulation  |                                                 |
\*---------------------------------------------------------------------------*/
FoamFile
{
    version     2.0;
    format      ascii;
    class       surfaceScalarField;
    location    "118.517163517870358";
    object      phi;
}
// * * * * * * * * * * * * * * * * * * * * * * * * * * * * * * * * * * * * * //

dimensions      [0 3 -1 0 0 0 0];
oriented        oriented;


internalField   nonuniform List<scalar> 
18180
(
-0.0086548669
-3.4598596
-0.01598385
-3.2293452
-0.0031251055
-3.5204803
-0.021521751
-3.0123746
-0.0053157535
-3.2853656
-0.0012085584
-3.5783357
-0.025047982
-2.8072541
-0.0063038487
-3.0636668
-0.0017656292
-3.3387653
0.00076120281
-3.6360445
-0.026217701
-2.6154848
-0.0058117948
-2.8555928
-0.0013615674
-3.1135399
0.0019517863
-3.3928554
0.0021066504
-3.6933457
-0.024945397
-2.4363296
-0.0037516622
-2.6619866
0.00023526042
-2.9026907
0.0038606775
-3.1643424
0.0045461622
-3.4474462
0.0031621065
-3.7502564
-0.021177039
-2.2693679
-8.8747682e-05
-2.4814739
0.0031177825
-2.7070975
0.0066556444
-2.9506649
0.0074436528
-3.2161926
0.0065638465
-3.5017795
0.0039664397
-3.8052545
-0.015028641
-2.113987
0.0051069078
-2.3135396
0.0072908618
-2.5253113
0.01038418
-2.752766
0.01101013
-2.9998957
0.010238173
-3.2683248
0.0080640607
-3.5545872
0.0045562496
-3.8579251
-0.0067634718
-1.9696069
0.011685164
-2.1572616
0.012657261
-2.3563394
0.015046954
-2.5691923
0.01525119
-2.7994874
0.014391639
-3.0496695
0.0123149
-3.3191262
0.0091574733
-3.6050234
0.0049551561
-3.907311
0.0033790561
-1.8356789
0.019453491
-2.0119485
0.019059247
-2.1990583
0.02055932
-2.3987122
0.020173438
-2.6134607
0.019012412
-2.8465036
0.016893134
-3.0983776
0.013829579
-3.3677249
0.009903476
-3.6523633
0.0051941148
-3.9534131
0.015053284
-1.7115203
0.028027126
-1.8768101
0.026257584
-2.0526101
0.026816724
-2.2400933
0.02570953
-2.4408716
0.024098339
-2.6579122
0.021778939
-2.8928345
0.018718781
-3.1450483
0.014865822
-3.4133724
0.010353579
-3.6964912
0.0052995777
-3.9957775
0.027748642
-1.5962348
0.036951119
-1.751078
0.03402036
-1.9161709
0.033690459
-2.0923719
0.031784434
-2.2804568
0.02958705
-2.4827951
0.026955078
-2.7014437
0.023798108
-2.9371135
0.019975631
-3.1889933
0.015495599
-3.4558924
0.010551805
-3.737024
0.0052939644
-4.0347271
0.041011389
-1.4892761
0.045972937
-1.6340504
0.042179032
-1.7890266
0.041066074
-1.9546515
0.038319268
-2.1310567
0.035415063
-2.3199308
0.032351889
-2.523419
0.029035467
-2.7430446
0.025201062
-2.9789896
0.020751852
-3.2299944
0.01577844
-3.4949806
0.010538485
-3.7742376
0.0051969196
-4.0701589
0.054380149
-1.390042
0.054817293
-1.5251658
0.050592875
-1.6705155
0.048833654
-1.8261984
0.045253062
-1.9917833
0.04152388
-2.1683787
0.037894504
-2.3578947
0.034345591
-2.5622182
0.030500427
-2.7825028
0.026090812
-3.0182677
0.02111602
-3.2678759
0.015766911
-3.5308701
0.010349402
-3.8081531
0.0050254024
-4.1025968
0.067371621
-1.2979303
0.063185506
-1.4237984
0.059017192
-1.5599798
0.05687843
-1.7063327
0.052552975
-1.8618702
0.047878898
-2.0271768
0.043510244
-2.2038975
0.039630024
-2.3938635
0.035774799
-2.5989267
0.031471299
-2.8196791
0.026540851
-3.054744
0.021125224
-3.3027088
0.015506436
-3.5636402
0.010015418
-3.8391784
0.0047933802
-4.1319788
0.079515944
-1.2123503
0.070785023
-1.3293547
0.067216986
-1.4568102
0.065124811
-1.5944389
0.060225868
-1.7406525
0.054480018
-1.8955291
0.049144891
-2.0604804
0.044783289
-2.2372111
0.040903792
-2.4277769
0.03679004
-2.6337589
0.03202287
-2.8546007
0.026604328
-3.088546
0.020825942
-3.334646
0.015035518
-3.5935931
0.0095623049
-3.8673161
0.0045122604
-4.1587993
0.090363155
-1.1327314
0.077347885
-1.2412706
0.07497406
-1.3604329
0.07352377
-1.4899372
0.068311635
-1.627529
0.061365921
-1.772761
0.05477251
-1.9268476
0.049704945
-2.0914028
0.045747095
-2.2685221
0.041915934
-2.460224
0.037467264
-2.6669141
0.032194423
-2.8872506
0.026317852
-3.1196808
0.020255887
-3.3638671
0.01438665
-3.6208149
0.0090119499
-3.8929751
0.0041918557
-4.1829996
0.099519736
-1.0585676
0.082662091
-1.1590335
0.082085652
-1.2703083
0.082035905
-1.3922651
0.07688833
-1.5219537
0.068621784
-1.6582818
0.060401169
-1.8022894
0.054307286
-1.9555676
0.050155808
-2.1202506
0.046688514
-2.2984999
0.0427504
-2.4914044
0.037822009
-2.6982652
0.031998991
-2.9175911
0.025707147
-3.1483525
0.019446796
-3.3905469
0.013588478
-3.6456437
0.0083837364
-3.9162132
0.0038414893
-4.2050488
0.10682863
-0.98960118
0.086562932
-1.0821811
0.088377004
-1.1859528
0.09064199
-1.3009015
0.086057596
-1.4233874
0.076379169
-1.5515748
0.066084836
-1.6862246
0.058520457
-1.8289498
0.053977411
-1.9820604
0.050926061
-2.1478482
0.047713554
-2.3277242
0.04338746
-2.5213563
0.037826131
-2.7276789
0.031434735
-2.9457217
0.024792817
-3.1746124
0.018428153
-3.4148901
0.012668068
-3.6681967
0.0076960966
-3.9373597
0.0034707633
-4.2248357
0.11263883
-0.92568107
0.088746312
-1.0103116
0.093664486
-1.1068949
0.099326397
-1.2153633
0.095958559
-1.3313467
0.08480763
-1.4521288
0.071907227
-1.578135
0.062301277
-1.7109404
0.057066599
-1.85316
0.054430294
-2.0073319
0.052170897
-2.1749873
0.048755175
-2.3560162
0.04373609
-2.5496025
0.037430373
-2.7550726
0.030497215
-2.9715935
0.023597432
-3.1986543
0.017230679
-3.4370608
0.011652394
-3.6886823
0.0069672955
-3.9563875
0.0030899139
-4.2427697
0.11695589
-0.86610768
0.088777491
-0.94313429
0.097724993
-1.0326871
0.10807536
-1.1351787
0.1067427
-1.2453626
0.094123897
-1.3595095
0.077997297
-1.4775392
0.065613973
-1.6009951
0.059283112
-1.7328746
0.056992508
-1.8760346
0.055914723
-2.0322261
0.053762939
-2.2014322
0.049633373
-2.3828794
0.043674479
-2.5760567
0.036586714
-2.7804503
0.02919079
-2.9953978
0.022150178
-3.2205989
0.015888003
-3.4571865
0.010568746
-3.7071582
0.0062157962
-3.9736016
0.002709077
-4.2587482
0.11957698
-0.81038147
0.086341758
-0.88005897
0.10032817
-0.96301862
0.1169548
-1.0599729
0.11858792
-1.1649954
0.10456101
-1.2732706
0.084536189
-1.3840456
0.068493509
-1.4986818
0.060464588
-1.6206068
0.058378217
-1.7532592
0.058715694
-1.8986164
0.058224085
-2.0567676
0.055398698
-2.226823
0.050120528
-2.408336
0.043085508
-2.6008918
0.035265698
-2.8039465
0.02753582
-3.0172214
0.020489194
-3.2406019
0.014436707
-3.4753871
0.0094443576
-3.7238466
0.0054592866
-3.9890129
0.00233702
-4.2731756
0.12048192
-0.75829058
0.081421777
-0.82087652
0.10148709
-0.89753302
0.1259978
-0.98940207
0.13164121
-1.0898434
0.1163777
-1.193001
0.091717263
-1.297214
0.070959659
-1.4035725
0.060475104
-1.5159262
0.058415587
-1.6384387
0.060335192
-1.7734129
0.061931566
-1.921181
0.060889398
-2.0806741
0.05670409
-2.2512877
0.049998414
-2.4325924
0.041885581
-2.6240527
0.033468584
-2.8256485
0.025571542
-3.0372352
0.018660623
-3.2587257
0.012915145
-3.4917935
0.0083051636
-3.7388257
0.0047136004
-4.002873
0.0019801518
-4.2859356
0.11925081
-0.70953877
0.07407224
-0.76544078
0.10110957
-0.83590831
0.13521744
-0.92308424
0.14601051
-1.01952
0.12982236
-1.1182894
0.099766514
-1.2166572
0.073037292
-1.3152166
0.059185683
-1.4183961
0.056886524
-1.5310828
0.060536613
-1.6560273
0.064673024
-1.7939048
0.065945355
-1.9435648
0.063341773
-2.1040592
0.057320231
-2.2749425
0.04910273
-2.455554
0.040042278
-2.6456893
0.031230394
-2.8456804
0.023354046
-3.055457
0.016716318
-3.2751018
0.011361202
-3.5065211
0.0071747476
-3.7522291
0.0039917164
-4.015158
0.0016429926
-4.2973758
0.11601522
-0.66387638
0.064139752
-0.71324114
0.099007805
-0.77789514
0.14461588
-0.86068223
0.16182811
-0.95366369
0.14513536
-1.0487398
0.10892775
-1.1419755
0.074787993
-1.2332533
0.056520607
-1.3276066
0.053531476
-1.4307003
0.059064753
-1.5459335
0.066202988
-1.6742946
0.070391753
-1.8146961
0.069934
-1.9658775
0.065031901
-2.1271921
0.056967524
-2.2978158
0.047347269
-2.4772228
0.03757846
-2.665799
0.028616875
-2.8640702
0.020951841
-3.0719971
0.014709614
-3.2898063
0.0098103101
-3.5196389
0.0060734566
-3.7641159
0.0033034557
-4.026104
0.0013280381
-4.3074007
0.11093672
-0.62091903
0.051693006
-0.66424554
0.095303825
-0.72328472
0.1541977
-0.80194433
0.17923928
-0.89194235
0.16253373
-0.98397072
0.1194595
-1.0727872
0.076280793
-1.1572896
0.052364644
-1.2431499
0.048160975
-1.3369429
0.055693841
-1.4426581
0.066291822
-1.5618127
0.07404474
-1.6933965
0.07636618
-1.835946
0.073100959
-1.9884662
0.065523173
-2.1499352
0.055480539
-2.3196152
0.044731557
-2.4975404
0.034568097
-2.6844123
0.025716866
-2.8808397
0.018439006
-3.0869046
0.012691941
-3.3029224
0.0082936992
-3.531261
0.0050179255
-3.7746431
0.0026548764
-4.0357289
0.0010343883
-4.3163573
0.10400306
-0.57981068
0.036777993
-0.61804388
0.089989744
-0.67191022
0.16398335
-0.74667625
0.19835639
-0.83406519
0.18220589
-0.92361774
0.1316204
-1.0087097
0.077586245
-1.0869443
0.04661866
-1.1646469
0.040587701
-1.2493992
0.05018234
-1.3458268
0.064746117
-1.4560152
0.076722184
-1.5791008
0.082515053
-1.7135163
0.081481798
-1.8579731
0.074805073
-2.0111048
0.064539804
-2.1719402
0.052819777
-2.3402647
0.041334615
-2.5164888
0.031124635
-2.7014909
0.022631865
-2.8960641
0.015889119
-3.100253
0.010709532
-3.3145236
0.0068373001
-3.5414799
0.0040206917
-3.7838975
0.0020492953
-4.0442324
0.00076058393
-4.3241542
0.094922654
-0.53976362
0.01946744
-0.57380626
0.083142644
-0.6234433
0.17405501
-0.69477021
0.21924752
-0.77978649
0.20428991
-0.86733542
0.14567766
-0.94938679
0.078769729
-1.0218263
0.039184356
-1.0917163
0.030642131
-1.1677
0.042329938
-1.2550622
0.06136113
-1.3565083
0.078252512
-1.4713639
0.088251683
-1.5980189
0.090114885
-1.7350235
0.084837041
-1.8806138
0.074621647
-2.0334122
0.061981336
-2.1930726
0.049062635
-2.3597529
0.037298299
-2.5340223
0.02738524
-2.7170922
0.01946582
-2.9097456
0.013369757
-3.112089
0.0088014541
-3.3247062
0.005461147
-3.5504203
0.0030904392
-3.7919797
0.0014904929
-4.0516281
0.00051079333
-4.3310724
0.083662108
-0.5010953
-8.1049495e-06
-0.53089906
0.075187086
-0.57739552
0.18450889
-0.64590983
0.24178852
-0.72880003
0.22865246
-0.81459452
0.16184099
-0.89440891
0.079903062
-0.96158476
0.029972537
-1.0239739
0.018173093
-1.0914763
0.031961824
-1.1700143
0.055967958
-1.262946
0.078481257
-1.3698051
0.093446174
-1.4889812
0.098928029
-1.6189938
0.095627702
-1.7577624
0.085815493
-1.9033693
0.072361439
-2.0551733
0.057913078
-2.2132267
0.044382528
-2.3778501
0.032805431
-2.5500645
0.023495361
-2.7311559
0.016316401
-2.9219315
0.010938734
-3.1224865
0.0069982383
-3.3335697
0.00417941
-3.5581342
0.002232733
-3.7989662
0.00098160675
-4.0580901
0.00028180313
-4.3370747
0.070559228
-0.46457875
-0.02125754
-0.48979812
0.066949967
-0.53353347
0.19571067
-0.59987292
0.26559314
-0.68051899
0.25468132
-0.76459955
0.17983199
-0.84275129
0.080962927
-0.90571456
0.018897338
-0.96107067
0.0030733451
-1.020382
0.018938355
-1.0903442
0.048433743
-1.1750067
0.077279485
-1.2740957
0.097977365
-1.3860219
0.10783742
-1.5093743
0.10716701
-1.6418895
0.098198755
-1.7811049
0.084106286
-1.9258302
0.068062251
-2.0760546
0.052540999
-2.2320162
0.039019205
-2.3944171
0.028057057
-2.5645302
0.019594695
-2.7436841
0.013268268
-2.9326303
0.0086416622
-3.1315418
0.0053216461
-3.3411841
0.0030008623
-3.5647455
0.0014500368
-3.804966
0.00051980359
-4.0636849
6.3746835e-05
-4.3424255
0.048781399
-0.5051761
-0.043851209
-0.45131322
0.058958545
-0.49203125
0.20796281
-0.55636194
0.29059203
-0.63503559
0.28177924
-0.71676973
0.19882537
-0.79306574
0.081739977
-0.85300912
0.0058145083
-0.90244726
-0.014743079
-0.95408454
0.003163126
-1.0157392
0.038672125
-1.0923911
0.074552984
-1.1839476
0.10173675
-1.2888205
0.11675077
-1.4057587
0.11942316
-1.53244
0.11182852
-1.6659374
0.09735633
-1.8044302
0.079696412
-1.9475941
0.061958621
-2.0956491
0.046172514
-2.2491642
0.033246277
-2.4092849
0.023250862
-2.5773637
0.015806234
-2.7546695
0.010388838
-2.9419702
0.0065110746
-3.1393198
0.003785083
-3.3476594
0.001929332
-3.5703191
0.00074208144
-3.81008
0.00010056785
-4.0685669
-0.00012989547
-4.3470616
0.025307385
-0.49965497
-0.07551721
-0.4837164
0.051305254
-0.45326186
0.22124385
-0.51522614
0.31635473
-0.59168587
0.30983992
-0.67168507
0.21853006
-0.74530348
0.082134062
-0.80223156
-0.0094601224
-0.84685884
-0.035318573
-0.89205848
-0.015457555
-0.94586305
0.026635225
-1.0148218
0.070250488
-1.0991007
0.10463618
-1.1971096
0.12556984
-1.3078185
0.13234057
-1.428961
0.12673528
-1.5572731
0.1122368
-1.6903238
0.093005462
-1.8272119
0.072838383
-1.9680263
0.054435071
-2.1134257
0.039174094
-2.2644453
0.027340154
-2.4223843
0.018563783
-2.5885661
0.012228709
-2.7642309
0.0077263141
-2.9499873
0.0045669629
-3.1459383
0.0023944223
-3.3530731
0.00096459599
-3.5749841
0.00010701185
-3.8143883
-0.00027838105
-4.0727521
-0.00030220738
-4.3511709
0.00039757369
-0.49378854
-0.10852324
-0.47685429
0.036142683
-0.47900185
0.23547588
-0.47677802
0.34252854
-0.55039188
0.33811575
-0.62803256
0.23878749
-0.70017477
0.082547343
-0.75383625
-0.026603075
-0.79357496
-0.058540455
-0.83320874
-0.036834386
-0.88036689
0.01233433
-0.94201471
0.064361244
-1.0193215
0.10661307
-1.1106569
0.13419562
-1.2152791
0.14583933
-1.3310945
0.14291583
-1.4546039
0.12884893
-1.5828563
0.10817573
-1.7143057
0.085398367
-1.8486211
0.063999947
-1.98651
0.045973222
-2.1291439
0.031926918
-2.2777678
0.021552807
-2.4337025
0.014139355
-2.5982334
0.0089330827
-2.7724271
0.005310244
-2.9568274
0.0028180109
-3.1514739
0.0011494962
-3.3575458
0.00010356452
-3.5787818
-0.00045833229
-3.8179714
-0.00062154389
-4.0763434
-0.00045966226
-4.3546814
-0.025535417
-0.4879089
-0.14247233
-0.47003565
0.021814444
-0.47303186
0.24353158
-0.49705779
0.36890545
-0.51160267
0.36617913
-0.5860464
0.25901128
-0.65593359
0.083313806
-0.70845478
-0.044674363
-0.7436625
-0.0839491
-0.77714691
-0.060472047
-0.81856111
-0.0041205579
-0.87372084
0.056932116
-0.94438651
0.10763368
-1.0292605
0.14253145
-1.1279134
0.159817
-1.238545
0.16032927
-1.3575274
0.1472591
-1.4814925
0.1253791
-1.6082898
0.09986607
-1.7369546
0.07508297
-1.8679332
0.053798937
-2.0026862
0.037090072
-2.1426779
0.024785673
-2.2891241
0.016091182
-2.4433456
0.010081276
-2.6064639
0.0059626778
-2.7793929
0.0031532837
-2.9625548
0.001263823
-3.1560591
4.5660167e-05
-3.3611347
-0.00065921708
-3.5818299
-0.00095744764
-3.8209164
-0.00092261463
-4.0793771
-0.00059715593
-4.3577752
-0.052011569
-0.48226874
-0.17676583
-0.46379767
0.0078750502
-0.46664769
0.25440029
-0.49396171
0.3902577
-0.52746407
0.39376053
-0.54632666
0.27901804
-0.61321145
0.086728928
-0.66630173
-0.06270472
-0.69777652
-0.11082581
-0.72519562
-0.085795987
-0.76013743
-0.022255824
-0.8096172
0.048060092
-0.87410061
0.10769926
-0.95274128
0.15048811
-1.04553
0.17415
-1.1510653
0.1788942
-1.2657104
0.16749143
-1.3857715
0.14476177
-1.5085825
0.11646993
-1.6324711
0.087921302
-1.7573081
0.062832242
-1.8846198
0.042925715
-2.0163931
0.02827957
-2.1540002
0.018046161
-2.2986187
0.011105823
-2.4514363
0.0064527886
-2.6133905
0.0033358564
-2.7852355
0.001254579
-2.9673371
-0.00010225245
-3.1597517
-0.00092496912
-3.3639568
-0.0013306363
-3.5841925
-0.0013961866
-3.8233076
-0.0011840349
-4.0819538
-0.00071330154
-4.3603597
-0.078506449
-0.47708499
-0.21072225
-0.45847557
-0.0059925603
-0.46051613
0.26730729
-0.48966927
0.41487916
-0.52773601
0.41886383
-0.56018986
0.29851258
-0.5724938
0.090405058
-0.62332625
-0.079726567
-0.65612691
-0.13864404
-0.6778205
-0.11285579
-0.70580088
-0.04157074
-0.74942778
0.037981616
-0.80828009
0.10683539
-0.88093378
0.1579873
-0.96796461
0.18870025
-1.0684494
0.19848793
-1.1788621
0.18951924
-1.2953029
0.16643459
-1.414673
0.13543062
-1.5345928
0.10276974
-1.6541955
0.073281845
-1.7746748
0.049551089
-1.8984913
0.032058611
-2.0276281
0.01996035
-2.1632494
0.011925434
-2.3064116
0.0066886873
-2.4581384
0.0032803841
-2.6191714
0.0010508664
-2.7901217
-0.00039670991
-2.971227
-0.0012934849
-3.1626799
-0.0017721483
-3.3660946
-0.001916641
-3.5859934
-0.001778709
-3.8252045
-0.0014084652
-4.0840606
-0.00080989419
-4.3625644
-0.1044068
-0.47261169
-0.24369461
-0.45425191
-0.019930501
-0.45514841
0.28129804
-0.4846695
0.44221368
-0.52624607
0.44658545
-0.56321279
0.32073219
-0.58941071
0.092510975
-0.58055883
-0.096582026
-0.61285164
-0.16862636
-0.63347909
-0.14181508
-0.65590608
-0.062216058
-0.69320576
0.027014481
-0.7467282
0.10509914
-0.81368616
0.16496306
-0.89506647
0.2033178
-0.99052177
0.21895213
-1.0967426
0.21326249
-1.2097411
0.19045981
-1.3261103
0.15695067
-1.442782
0.11989508
-1.5580605
0.085382976
-1.672561
0.057107921
-1.7888104
0.036158391
-1.9095522
0.021784893
-2.0365
0.012443041
-2.1705968
0.0065565272
-2.3127095
0.0028780009
-2.4636407
0.00056091216
-2.6239754
-0.00090876684
-2.7941467
-0.0018182937
-2.9743692
-0.0023227985
-3.1649164
-0.0025064177
-3.3676628
-0.0024244758
-3.5873066
-0.0021095838
-3.8266698
-0.0015998817
-4.0857776
-0.00089112701
-4.364273
-0.12906575
-0.46901588
-0.27519868
-0.45121791
-0.033917014
-0.45089055
0.29536385
-0.47941985
0.47144053
-0.52322397
0.47644689
-0.56398569
0.34511505
-0.59466296
0.099497455
-0.60256432
-0.11399712
-0.56909725
-0.19815845
-0.59014359
-0.1720242
-0.60973284
-0.084429476
-0.64121924
0.015232831
-0.68925074
0.10259658
-0.75085024
0.17135766
-0.82669749
0.21784973
-0.91713177
0.2400926
-1.0191403
0.23858597
-1.1287903
0.21684686
-1.2424909
0.18120137
-1.3565339
0.13956918
-1.4683446
0.099398966
-1.5777983
0.065765367
-1.6871431
0.040628405
-1.7996548
0.023470218
-1.9179137
0.012546322
-2.0432358
0.0059190287
-2.1763189
0.0019945581
-2.3177448
-0.00033142428
-2.4681465
-0.0017303592
-2.6279412
-0.0025691211
-2.7974349
-0.003031158
-2.9768244
-0.0032059615
-3.1665818
-0.0031384657
-3.3687662
-0.0028615138
-3.5882361
-0.0023934745
-3.8277646
-0.0017626347
-4.0870737
-0.00095997093
-4.3656148
-0.15197713
-0.46626821
-0.30483064
-0.44946049
-0.047897921
-0.4478655
0.30860312
-0.47437343
0.50149633
-0.51888314
0.50767402
-0.56244573
0.37096999
-0.59696514
0.10674897
-0.60810351
-0.1271985
-0.59552113
-0.22598539
-0.547602
-0.2016498
-0.56644815
-0.1076784
-0.59352419
0.0024284598
-0.63583226
0.099442782
-0.69224311
0.17712092
-0.7627214
0.23214332
-0.8481386
0.26169439
-0.94588253
0.26529835
-1.0521801
0.24553939
-1.1634457
0.20831553
-1.275397
0.16206042
-1.3845132
0.11561763
-1.4898301
0.075722834
-1.5931368
0.045536525
-1.6978837
0.024965925
-1.8073983
0.012109606
-1.9238372
0.0046165435
-2.0481747
0.0004683316
-2.180695
-0.0017683294
-2.3217586
-0.0029764589
-2.4718221
-0.0036319819
-2.6311884
-0.003961322
-2.80008
-0.004057837
-2.9787247
-0.0039585084
-3.1677615
-0.0036786991
-3.3695027
-0.0032347762
-3.5888563
-0.002634938
-3.8285403
-0.0019001404
-4.0880206
-0.0010177267
-4.3665156
-0.46450703
-0.17259863
-0.33215463
-0.44898331
-0.061817942
-0.44616162
0.32036542
-0.46990463
0.53113832
-0.51349627
0.53922352
-0.55853543
0.39728217
-0.59593112
0.11386656
-0.61027317
-0.14013668
-0.60139032
-0.25288796
-0.57510707
-0.2295201
-0.5251849
-0.13109154
-0.54962758
-0.011566361
-0.58656101
0.095598563
-0.63769479
0.18224965
-0.70300426
0.24604935
-0.78340693
0.28352125
-0.87680417
0.29316436
-0.97969114
0.27641684
-1.0886387
0.23836829
-1.1989404
0.18762342
-1.3060837
0.13434887
-1.4081222
0.087211533
-1.5062684
0.050970448
-1.6039069
0.026226678
-1.7049085
0.010992625
-1.8122919
0.002466175
-1.9277329
-0.0018890014
-2.0516607
-0.0039205827
-2.1840276
-0.0047864322
-2.3249569
-0.0051135621
-2.4748114
-0.0051895849
-2.6338422
-0.0051180522
-2.8021961
-0.0049206402
-2.9801303
-0.0045953325
-3.1685631
-0.0041369716
-3.3699728
-0.0035508256
-3.5892465
-0.0028382375
-3.829025
-0.0020149748
-4.0886007
-0.0010653934
-4.3670859
-0.44990404
-0.35675612
-0.46390846
-0.19028722
-0.07533754
-0.44606778
0.33015622
-0.46625772
0.55906964
-0.50738336
0.5699157
-0.5523906
0.42286253
-0.59133007
0.12035163
-0.60859813
-0.15340283
-0.60328819
-0.27878085
-0.58208352
-0.26227741
-0.54788648
-0.1536096
-0.50885222
-0.026512041
-0.54134001
0.090836127
-0.58709899
0.18673573
-0.64736993
0.25943555
-0.72281797
0.30533787
-0.81176755
0.32190074
-0.91111359
0.3092913
-1.0177817
0.27138004
-1.1267701
0.21648332
-1.232591
0.15591479
-1.3321737
0.1004953
-1.4259812
0.057041669
-1.517235
0.027211603
-1.6101779
0.0090493298
-1.7085778
-0.00073335273
-1.8148694
-0.0052957175
-1.9300478
-0.0069867262
-2.0540837
-0.0073259176
-2.1865706
-0.0071414102
-2.3275179
-0.0068093859
-2.4772521
-0.0064508191
-2.6360032
-0.0060715063
-2.8038541
-0.0056406867
-2.9811459
-0.0051302659
-3.1690831
-0.0045223994
-3.3702442
-0.0038157189
-3.5894454
-0.0030073061
-3.8292545
-0.0021093876
-4.0888829
-0.0011039254
-4.3672603
-0.44742283
-0.088396304
-0.45273177
-0.3778878
-0.46438705
-0.20461073
0.33763095
-0.46387096
0.58405938
-0.50085373
0.59852396
-0.54428188
0.44648721
-0.58326435
0.12552461
-0.60267175
-0.1672433
-0.60108185
-0.30413283
-0.58460528
-0.29344763
-0.55654493
-0.18679041
-0.52101176
-0.041492642
-0.50014369
0.08494863
-0.5403783
0.19053347
-0.59568167
0.27218886
-0.66621375
0.32690515
-0.75064412
0.35120721
-0.84629319
0.34390969
-0.950599
0.30729723
-1.058521
0.24883646
-1.1636076
0.18064324
-1.2615163
0.11586168
-1.3517863
0.063885443
-1.4373591
0.027886013
-1.522781
0.0061192328
-1.6124428
-0.005214601
-1.7095736
-0.0099989231
-1.8157397
-0.011199198
-1.9312765
-0.010788776
-2.0557582
-0.0098657037
-2.1885553
-0.0089301357
-2.3295992
-0.0081329741
-2.4792546
-0.0074618605
-2.6377542
-0.0068515736
-2.8051293
-0.0062372575
-2.9818561
-0.0055758796
-3.1693986
-0.004843287
-3.3703873
-0.0040349805
-3.5894992
-0.0031457235
-3.8292509
-0.0021854511
-4.0888541
-0.0011342209
-4.3671588
-0.46282386
0.3426862
-0.45028853
-0.10138245
-0.45716312
-0.39502105
-0.46589758
-0.21526006
0.60485491
-0.49432289
0.62388607
-0.53458157
0.46696325
-0.57203738
0.12870788
-0.5926031
-0.18174131
-0.59452774
-0.32899064
-0.58296109
-0.32299037
-0.5607809
-0.21876852
-0.53100301
-0.071203478
-0.49766616
0.078209644
-0.49798253
0.19337621
-0.54764606
0.2842595
-0.61351992
0.34799507
-0.69328498
0.38075252
-0.78506999
0.37996991
-0.88688606
0.34600414
-0.99385117
0.28482742
-1.0987155
0.20886813
-1.1957256
0.133627
-1.2832279
0.071654148
-1.363783
0.028217566
-1.4422137
0.002048785
-1.5234993
-0.011206727
-1.6115877
-0.016261709
-1.7086863
-0.016810307
-1.8154688
-0.015392959
-1.931826
-0.013459532
-2.0569873
-0.011678507
-2.190155
-0.010251953
-2.3313237
-0.0091504784
-2.4809039
-0.0082650867
-2.6391505
-0.0074851427
-2.8060974
-0.0067275549
-2.9823441
-0.0059433945
-3.1695748
-0.0051070991
-3.3704373
-0.0042136035
-3.5894133
-0.0032567533
-3.8290444
-0.0022450741
-4.0885731
-0.0011571183
-4.3667458
-0.48830036
0.62063362
-0.46244253
0.34448065
-0.45517314
-0.11387316
-0.46308119
-0.40770016
-0.46835414
-0.22195755
0.64488105
-0.52374552
0.48317176
-0.55809646
0.12930888
-0.57878563
-0.19684814
-0.58386744
-0.35305831
-0.57724823
-0.35075861
-0.56098528
-0.24901466
-0.53709277
-0.10068781
-0.50803665
0.054171489
-0.47822749
0.19529632
-0.50401915
0.29546818
-0.56430978
0.36845211
-0.63967939
0.41023746
-0.72732708
0.41712994
-0.82644618
0.38731198
-0.93248189
0.32456293
-1.0375313
0.24091798
-1.1343747
0.15413493
-1.2199037
0.08052625
-1.2960579
0.028185831
-1.3679851
-0.0033294833
-1.4412641
-0.018985508
-1.5204566
-0.024380821
-1.6085655
-0.024102227
-1.7066248
-0.021384314
-1.8146135
-0.018116312
-1.9320649
-0.015197695
-2.0579677
-0.012906347
-2.1915203
-0.011201208
-2.3327822
-0.0099218209
-2.4822521
-0.0088979007
-2.6402602
-0.0079956688
-2.8068266
-0.0071265978
-2.9826633
-0.0062427089
-3.1696567
-0.0053204909
-3.3704123
-0.0043560858
-3.5892196
-0.003343338
-3.8286284
-0.0022900039
-4.0880354
-0.0011734351
-4.3661086
-0.51228717
0.66039315
-0.48220812
0.63066674
-0.46447628
0.34341359
-0.46238585
-0.12501948
-0.47018783
-0.41568184
-0.47163761
-0.22450515
0.49408157
-0.5419869
0.12683813
-0.56177303
-0.21239024
-0.56961922
-0.37590621
-0.56783925
-0.37652397
-0.55733741
-0.27732504
-0.53933911
-0.12919726
-0.51521907
0.029403279
-0.48800051
0.17815462
-0.46522204
0.30591266
-0.51961636
0.38803801
-0.58931018
0.43942214
-0.67311273
0.45510526
-0.76921742
0.4310338
-0.87421467
0.36809807
-0.97972319
0.27713358
-1.0770915
0.1777758
-1.1614281
0.090703196
-1.2337921
0.027763342
-1.2996251
-0.01022002
-1.3652204
-0.028820818
-1.4357849
-0.034649147
-1.5149702
-0.03337462
-1.6043798
-0.029028798
-1.7040761
-0.024051281
-1.8136033
-0.019645581
-1.9322496
-0.016204282
-2.0588829
-0.013682819
-2.1927428
-0.01186227
-2.334028
-0.010498955
-2.4833596
-0.0093922351
-2.6411284
-0.008403159
-2.8073633
-0.0074473271
-2.9828553
-0.0064824574
-3.1696617
-0.0054893594
-3.3703252
-0.0044664475
-3.5888738
-0.003408161
-3.8280224
-0.0023218395
-4.0872933
-0.0011838654
-4.3652144
-0.52435129
0.49879065
-0.49977775
0.669456
-0.4786804
0.63511048
-0.46837597
0.33902712
-0.4714369
-0.13416458
-0.47814848
-0.41893825
-0.47579816
-0.22299238
0.12093235
-0.54223768
-0.22805808
-0.55247409
-0.39706369
-0.55529042
-0.4000064
-0.55025975
-0.30367816
-0.53773547
-0.15633484
-0.51893791
0.004519308
-0.49518274
0.16045254
-0.47458997
0.29614274
-0.46060694
0.40695561
-0.54363568
0.46793595
-0.62178215
0.49356526
-0.71520744
0.47692808
-0.81893108
0.41545551
-0.92505703
0.31783144
-1.0235197
0.20503491
-1.1075234
0.10247158
-1.1766799
0.026929024
-1.23673
-0.018803144
-1.2949133
-0.040956675
-1.3571137
-0.04737244
-1.4274877
-0.044936356
-1.5082414
-0.038607362
-1.5997977
-0.03149455
-1.7015567
-0.025193681
-1.8127742
-0.020261484
-1.9325768
-0.016666721
-2.0598269
-0.014126044
-2.1938862
-0.012307056
-2.3351132
-0.010925262
-2.484256
-0.0097746332
-2.6417952
-0.0087243676
-2.8077305
-0.0077007489
-2.9829391
-0.0066701396
-3.1696049
-0.0056189006
-3.3701253
-0.0045483175
-3.5883928
-0.0034536399
-3.8272355
-0.0023420207
-4.0863481
-0.0011890507
-4.3641461
-0.52100991
0.11141572
-0.50546247
0.49709738
-0.48923029
0.67148358
-0.47637549
0.6333306
-0.4740213
0.33123162
-0.48166875
-0.14097511
-0.48673387
-0.41772112
-0.48054368
-0.21762628
-0.24339268
-0.53325439
-0.41602291
-0.54032776
-0.42095744
-0.5402761
-0.32814688
-0.5326058
-0.18209461
-0.51879273
-0.020039091
-0.49932984
0.14204903
-0.48121719
0.28658231
-0.47034314
0.4048456
-0.46356078
0.49597271
-0.57535872
0.53197306
-0.66356924
0.5244365
-0.76632298
0.46612344
-0.87288421
0.36282333
-0.97292274
0.23619293
-1.0576276
0.11628867
-1.1246096
0.025848121
-1.1791735
-0.029250769
-1.2299288
-0.055680792
-1.2839272
-0.0628636
-1.3456936
-0.059098731
-1.417829
-0.05041052
-1.5012538
-0.040688187
-1.5954836
-0.032022718
-1.6994834
-0.025199387
-1.8123444
-0.020224745
-1.9331697
-0.01674906
-2.0608713
-0.014335027
-2.1949815
-0.012594292
-2.3360561
-0.011235808
-2.4849733
-0.010066628
-2.642268
-0.0089731292
-2.8079564
-0.0078961649
-2.9829356
-0.0068122245
-3.1694443
-0.0057137345
-3.3698218
-0.0046049366
-3.5877576
-0.0034819585
-3.8263004
-0.0023518288
-4.0852417
-0.001189558
-4.362878
-0.51290127
-0.25782427
-0.49961002
0.099358359
-0.48773141
0.48819949
-0.47984712
0.66643709
-0.47550914
0.62502743
-0.48102077
0.32020254
-0.49249278
-0.14547863
-0.49560541
-0.4123318
-0.48538554
-0.20875894
-0.43227203
-0.52377696
-0.43924094
-0.52799766
-0.35088766
-0.52438753
-0.20682189
-0.51475492
-0.04390691
-0.4999651
0.12310953
-0.48495734
0.27687576
-0.47697107
0.40351238
-0.47423904
0.50253237
-0.47376137
0.57033714
-0.61687287
0.57281896
-0.71535904
0.51913231
-0.82243375
0.41069917
-0.92342872
0.26996212
-1.0094362
0.1317879
-1.0761942
0.024757767
-1.1269096
-0.041634
-1.1702323
-0.073270766
-1.2158201
-0.081408855
-1.2691418
-0.0761618
-1.3328031
-0.064726329
-1.4080759
-0.051879404
-1.4948435
-0.040319207
-1.5919574
-0.031141421
-1.6981341
-0.024426678
-1.8124686
-0.019761094
-1.9340815
-0.016586703
-2.0620261
-0.014388898
-2.1960413
-0.012770073
-2.3368751
-0.011458062
-2.4855085
-0.010285363
-2.6425785
-0.0091607208
-2.8080537
-0.0080413904
-2.9828269
-0.0069143464
-3.1691959
-0.0057779324
-3.3693837
-0.0046392075
-3.5870075
-0.0034950292
-3.8252173
-0.0023524261
-4.0839748
-0.0011859065
-4.3614825
-0.50651326
-0.44536552
-0.49388433
-0.26983765
-0.4787873
0.084169996
-0.47125615
0.4721933
-0.47196778
0.65440463
-0.47605624
0.61026652
-0.48885162
0.30618031
-0.50324739
-0.14802383
-0.5042364
-0.4031069
-0.49008416
-0.1969528
-0.4548932
-0.51407691
-0.37218921
-0.51356133
-0.23110566
-0.5070178
-0.067153035
-0.49662846
0.10407059
-0.48560661
0.26675884
-0.48043037
0.40279885
-0.48162325
0.50998042
-0.48548298
0.58802214
-0.49454542
0.62176681
-0.66902897
0.57382687
-0.77298776
0.46044064
-0.87466008
0.30396058
-0.95998143
0.14603211
-1.0265564
0.022359717
-1.0770144
-0.055878574
-1.1159196
-0.09382255
-1.1529267
-0.1032748
-1.1974407
-0.096396825
-1.2527702
-0.081828375
-1.3199545
-0.065311781
-1.3992356
-0.050270782
-1.4896116
-0.038210019
-1.5895096
-0.029337155
-1.6976611
-0.023183185
-1.813178
-0.019054301
-1.9353118
-0.016285508
-2.06328
-0.014347858
-2.1970543
-0.012869154
-2.3375551
-0.011612957
-2.4858867
-0.010444214
-2.6427283
-0.0092963052
-2.8080322
-0.0081430201
-2.9826169
-0.006981354
-3.1687948
-0.0058151042
-3.368835
-0.0046536518
-3.5861149
-0.0034945808
-3.8240137
-0.00234489
-4.082587
-0.0011785194
-4.3599223
-0.49915853
-0.46818077
-0.49136637
-0.45450644
-0.47490934
-0.2799611
-0.45980749
0.066437999
-0.45707745
0.44987903
-0.46563896
0.63554802
-0.4777153
0.58933625
-0.49693876
0.28949445
-0.51340326
-0.14896189
-0.5122084
-0.3905605
-0.49451184
-0.1829079
-0.39251475
-0.50060734
-0.25568993
-0.49590671
-0.090290897
-0.48906842
0.08536332
-0.48269956
0.25628271
-0.4808296
0.40248325
-0.48560293
0.51819269
-0.49376835
0.60654575
-0.50723687
0.65456415
-0.53046914