/*--------------------------------*- C++ -*----------------------------------*\
| =========                 |                                                 |
| \\      /  F ield         | OpenFOAM: The Open Source CFD Toolbox           |
|  \\    /   O peration     | Version:  v2012                                 |
|   \\  /    A nd           | Website:  www.openfoam.com                      |
|    \\/     M anipulation  |                                                 |
\*---------------------------------------------------------------------------*/
FoamFile
{
    version     2.0;
    format      ascii;
    class       pointVectorField;
    location    "118.517163517870358";
    object      pointDisplacement;
}
// * * * * * * * * * * * * * * * * * * * * * * * * * * * * * * * * * * * * * //

dimensions      [0 1 0 0 0 0 0];


internalField   nonuniform List<vector> 
18840
(
(0.14856609 0 0)
(0.14863115 0 0)
(0.14882523 0 0)
(0.14914625 0 0)
(0.14959242 0 0)
(0.15016238 0 0)
(0.15085478 0 0)
(0.15166853 0 0)
(0.15260253 0 0)
(0.15365587 0 0)
(0.15482768 0 0)
(0.15611714 0 0)
(0.15752349 0 0)
(0.15904595 0 0)
(0.1606838 0 0)
(0.16243625 0 0)
(0.16430252 0 0)
(0.16628154 0 0)
(0.168372 0 0)
(0.17057235 0 0)
(0.17332693 0 0)
(0.14856609 0 0)
(0.148631 0 0)
(0.14882459 0 0)
(0.14914471 0 0)
(0.14958954 0 0)
(0.15015761 0 0)
(0.1508476 0 0)
(0.15165827 0 0)
(0.15258852 0 0)
(0.15363732 0 0)
(0.15480376 0 0)
(0.1560869 0 0)
(0.15748591 0 0)
(0.15899992 0 0)
(0.16062812 0 0)
(0.16236963 0 0)
(0.16422358 0 0)
(0.16618889 0 0)
(0.1682643 0 0)
(0.1704483 0 0)
(0.17271553 0 0)
(0.14856609 0 0)
(0.14863091 0 0)
(0.14882421 0 0)
(0.14914373 0 0)
(0.1495876 0 0)
(0.15015428 0 0)
(0.15084237 0 0)
(0.15165054 0 0)
(0.1525776 0 0)
(0.15362242 0 0)
(0.15478395 0 0)
(0.15606114 0 0)
(0.15745304 0 0)
(0.15895863 0 0)
(0.16057699 0 0)
(0.1623071 0 0)
(0.16414803 0 0)
(0.16609868 0 0)
(0.16815804 0 0)
(0.17032498 0 0)
(0.17260424 0 0)
(0.14856609 0 0)
(0.14863075 0 0)
(0.14882355 0 0)
(0.14914217 0 0)
(0.14958467 0 0)
(0.15014942 0 0)
(0.15083497 0 0)
(0.15163989 0 0)
(0.15256287 0 0)
(0.15360264 0 0)
(0.15475804 0 0)
(0.15602787 0 0)
(0.157411 0 0)
(0.15890625 0 0)
(0.16051252 0 0)
(0.16222861 0 0)
(0.16405338 0 0)
(0.16598556 0 0)
(0.16802392 0 0)
(0.17016713 0 0)
(0.17244597 0 0)
(0.14856609 0 0)
(0.14863052 0 0)
(0.14882261 0 0)
(0.14914005 0 0)
(0.14958075 0 0)
(0.1501431 0 0)
(0.15082549 0 0)
(0.15162645 0 0)
(0.15254452 0 0)
(0.15357833 0 0)
(0.15472653 0 0)
(0.15598776 0 0)
(0.15736071 0 0)
(0.15884398 0 0)
(0.16043624 0 0)
(0.16213608 0 0)
(0.16394208 0 0)
(0.16585266 0 0)
(0.16786626 0 0)
(0.16998115 0 0)
(0.17225174 0 0)
(0.14856609 0 0)
(0.14863023 0 0)
(0.14882141 0 0)
(0.14913733 0 0)
(0.1495759 0 0)
(0.15013532 0 0)
(0.15081403 0 0)
(0.15161036 0 0)
(0.15252283 0 0)
(0.15354983 0 0)
(0.15468996 0 0)
(0.15594157 0 0)
(0.15730322 0 0)
(0.15877323 0 0)
(0.16035006 0 0)
(0.16203199 0 0)
(0.16381735 0 0)
(0.16570425 0 0)
(0.16769068 0 0)
(0.16977459 0 0)
(0.17203104 0 0)
(0.14856609 0 0)
(0.14862987 0 0)
(0.14881999 0 0)
(0.14913407 0 0)
(0.14957013 0 0)
(0.15012619 0 0)
(0.15080066 0 0)
(0.15159174 0 0)
(0.15249791 0 0)
(0.1535174 0 0)
(0.15464864 0 0)
(0.15588983 0 0)
(0.1572393 0 0)
(0.15869514 0 0)
(0.16025552 0 0)
(0.16191851 0 0)
(0.16368209 0 0)
(0.16554409 0 0)
(0.16750211 0 0)
(0.16955378 0 0)
(0.1717916 0 0)
(0.14856609 0 0)
(0.14862946 0 0)
(0.14881834 0 0)
(0.14913036 0 0)
(0.14956347 0 0)
(0.15011577 0 0)
(0.15078541 0 0)
(0.15157067 0 0)
(0.1524698 0 0)
(0.15348108 0 0)
(0.15460265 0 0)
(0.15583268 0 0)
(0.15716918 0 0)
(0.15861014 0 0)
(0.16015338 0 0)
(0.16179677 0 0)
(0.16353798 0 0)
(0.16537454 0 0)
(0.16730377 0 0)
(0.16932288 0 0)
(0.17153858 0 0)
(0.14856609 0 0)
(0.148629 0 0)
(0.14881647 0 0)
(0.14912616 0 0)
(0.14955601 0 0)
(0.15010404 0 0)
(0.15076834 0 0)
(0.15154711 0 0)
(0.15243853 0 0)
(0.15344079 0 0)
(0.15455195 0 0)
(0.15577002 0 0)
(0.15709284 0 0)
(0.15851822 0 0)
(0.16004377 0 0)
(0.16166711 0 0)
(0.16338564 0 0)
(0.16519665 0 0)
(0.16709716 0 0)
(0.16908409 0 0)
(0.17127481 0 0)
(0.14856609 0 0)
(0.14862847 0 0)
(0.14881438 0 0)
(0.14912147 0 0)
(0.14954766 0 0)
(0.15009095 0 0)
(0.15074936 0 0)
(0.15152102 0 0)
(0.15240404 0 0)
(0.15339655 0 0)
(0.15449652 0 0)
(0.15570186 0 0)
(0.1570103 0 0)
(0.15841949 0 0)
(0.15992688 0 0)
(0.16152986 0 0)
(0.16322561 0 0)
(0.16501118 0 0)
(0.16688336 0 0)
(0.16883881 0 0)
(0.17100222 0 0)
(0.14856609 0 0)
(0.14862801 0 0)
(0.14881252 0 0)
(0.14911729 0 0)
(0.14954021 0 0)
(0.15007923 0 0)
(0.15073232 0 0)
(0.15149754 0 0)
(0.15237293 0 0)
(0.15335654 0 0)
(0.15444627 0 0)
(0.15563997 0 0)
(0.15693524 0 0)
(0.15832962 0 0)
(0.15982043 0 0)
(0.16140486 0 0)
(0.16307989 0 0)
(0.16484236 0 0)
(0.16668885 0 0)
(0.16861573 0 0)
(0.17075103 0 0)
(0.14856609 0 0)
(0.14863115 0 0)
(0.14882523 0 0)
(0.14914625 0 0)
(0.14959242 0 0)
(0.15016238 0 0)
(0.15085478 0 0)
(0.15166853 0 0)
(0.15260253 0 0)
(0.15365587 0 0)
(0.15482768 0 0)
(0.15611714 0 0)
(0.15752349 0 0)
(0.15904595 0 0)
(0.1606838 0 0)
(0.16243625 0 0)
(0.16430252 0 0)
(0.16628154 0 0)
(0.168372 0 0)
(0.17057235 0 0)
(0.17332693 0 0)
(0.14856609 0 0)
(0.148631 0 0)
(0.14882459 0 0)
(0.14914471 0 0)
(0.14958954 0 0)
(0.15015761 0 0)
(0.1508476 0 0)
(0.15165827 0 0)
(0.15258852 0 0)
(0.15363732 0 0)
(0.15480376 0 0)
(0.1560869 0 0)
(0.15748591 0 0)
(0.15899992 0 0)
(0.16062812 0 0)
(0.16236963 0 0)
(0.16422358 0 0)
(0.16618889 0 0)
(0.1682643 0 0)
(0.1704483 0 0)
(0.17271553 0 0)
(0.14856609 0 0)
(0.14863091 0 0)
(0.14882421 0 0)
(0.14914373 0 0)
(0.1495876 0 0)
(0.15015428 0 0)
(0.15084237 0 0)
(0.15165054 0 0)
(0.1525776 0 0)
(0.15362242 0 0)
(0.15478395 0 0)
(0.15606114 0 0)
(0.15745304 0 0)
(0.15895863 0 0)
(0.16057699 0 0)
(0.1623071 0 0)
(0.16414803 0 0)
(0.16609868 0 0)
(0.16815804 0 0)
(0.17032498 0 0)
(0.17260424 0 0)
(0.14856609 0 0)
(0.14863075 0 0)
(0.14882355 0 0)
(0.14914217 0 0)
(0.14958467 0 0)
(0.15014942 0 0)
(0.15083497 0 0)
(0.15163989 0 0)
(0.15256287 0 0)
(0.15360264 0 0)
(0.15475804 0 0)
(0.15602787 0 0)
(0.157411 0 0)
(0.15890625 0 0)
(0.16051252 0 0)
(0.16222861 0 0)
(0.16405338 0 0)
(0.16598556 0 0)
(0.16802392 0 0)
(0.17016713 0 0)
(0.17244597 0 0)
(0.14856609 0 0)
(0.14863052 0 0)
(0.14882261 0 0)
(0.14914005 0 0)
(0.14958075 0 0)
(0.1501431 0 0)
(0.15082549 0 0)
(0.15162645 0 0)
(0.15254452 0 0)
(0.15357833 0 0)
(0.15472653 0 0)
(0.15598776 0 0)
(0.15736071 0 0)
(0.15884398 0 0)
(0.16043624 0 0)
(0.16213608 0 0)
(0.16394208 0 0)
(0.16585266 0 0)
(0.16786626 0 0)
(0.16998115 0 0)
(0.17225174 0 0)
(0.14856609 0 0)
(0.14863023 0 0)
(0.14882141 0 0)
(0.14913733 0 0)
(0.1495759 0 0)
(0.15013532 0 0)
(0.15081403 0 0)
(0.15161036 0 0)
(0.15252283 0 0)
(0.15354983 0 0)
(0.15468996 0 0)
(0.15594157 0 0)
(0.15730322 0 0)
(0.15877323 0 0)
(0.16035006 0 0)
(0.16203199 0 0)
(0.16381735 0 0)
(0.16570425 0 0)
(0.16769068 0 0)
(0.16977459 0 0)
(0.17203104 0 0)
(0.14856609 0 0)
(0.14862987 0 0)
(0.14881999 0 0)
(0.14913407 0 0)
(0.14957013 0 0)
(0.15012619 0 0)
(0.15080066 0 0)
(0.15159174 0 0)
(0.15249791 0 0)
(0.1535174 0 0)
(0.15464864 0 0)
(0.15588983 0 0)
(0.1572393 0 0)
(0.15869514 0 0)
(0.16025552 0 0)
(0.16191851 0 0)
(0.16368209 0 0)
(0.16554409 0 0)
(0.16750211 0 0)
(0.16955378 0 0)
(0.1717916 0 0)
(0.14856609 0 0)
(0.14862946 0 0)
(0.14881834 0 0)
(0.14913036 0 0)
(0.14956347 0 0)
(0.15011577 0 0)
(0.15078541 0 0)
(0.15157067 0 0)
(0.1524698 0 0)
(0.15348108 0 0)
(0.15460265 0 0)
(0.15583268 0 0)
(0.15716918 0 0)
(0.15861014 0 0)
(0.16015338 0 0)
(0.16179677 0 0)
(0.16353798 0 0)
(0.16537454 0 0)
(0.16730377 0 0)
(0.16932288 0 0)
(0.17153858 0 0)
(0.14856609 0 0)
(0.148629 0 0)
(0.14881647 0 0)
(0.14912616 0 0)
(0.14955601 0 0)
(0.15010404 0 0)
(0.15076834 0 0)
(0.15154711 0 0)
(0.15243853 0 0)
(0.15344079 0 0)
(0.15455195 0 0)
(0.15577002 0 0)
(0.15709284 0 0)
(0.15851822 0 0)
(0.16004377 0 0)
(0.16166711 0 0)
(0.16338564 0 0)
(0.16519665 0 0)
(0.16709716 0 0)
(0.16908409 0 0)
(0.17127481 0 0)
(0.14856609 0 0)
(0.14862847 0 0)
(0.14881438 0 0)
(0.14912147 0 0)
(0.14954766 0 0)
(0.15009095 0 0)
(0.15074936 0 0)
(0.15152102 0 0)
(0.15240404 0 0)
(0.15339655 0 0)
(0.15449652 0 0)
(0.15570186 0 0)
(0.1570103 0 0)
(0.15841949 0 0)
(0.15992688 0 0)
(0.16152986 0 0)
(0.16322561 0 0)
(0.16501118 0 0)
(0.16688336 0 0)
(0.16883881 0 0)
(0.17100222 0 0)
(0.14856609 0 0)
(0.14862801 0 0)
(0.14881252 0 0)
(0.14911729 0 0)
(0.14954021 0 0)
(0.15007923 0 0)
(0.15073232 0 0)
(0.15149754 0 0)
(0.15237293 0 0)
(0.15335654 0 0)
(0.15444627 0 0)
(0.15563997 0 0)
(0.15693524 0 0)
(0.15832962 0 0)
(0.15982043 0 0)
(0.16140486 0 0)
(0.16307989 0 0)
(0.16484236 0 0)
(0.16668885 0 0)
(0.16861573 0 0)
(0.17075103 0 0)
(0.14856609 0 0)
(0.1486332 0 0)
(0.14883349 0 0)
(0.14916504 0 0)
(0.14962627 0 0)
(0.15021583 0 0)
(0.15093245 0 0)
(0.15177492 0 0)
(0.15274206 0 0)
(0.15383271 0 0)
(0.15504567 0 0)
(0.15637967 0 0)
(0.15783334 0 0)
(0.15940521 0 0)
(0.16109366 0 0)
(0.16289691 0 0)
(0.16481301 0 0)
(0.16683984 0 0)
(0.16897512 0 0)
(0.17121723 0 0)
(0.17376129 0 0)
(0.14856609 0 0)
(0.1486331 0 0)
(0.1488331 0 0)
(0.14916411 0 0)
(0.14962455 0 0)
(0.15021301 0 0)
(0.15092822 0 0)
(0.15176894 0 0)
(0.15273399 0 0)
(0.15382222 0 0)
(0.15503244 0 0)
(0.1563634 0 0)
(0.15781378 0 0)
(0.15938215 0 0)
(0.16106694 0 0)
(0.16286644 0 0)
(0.16477879 0 0)
(0.16680196 0 0)
(0.16893375 0 0)
(0.1711726 0 0)
(0.17371179 0 0)
(0.14856609 0 0)
(0.14863308 0 0)
(0.14883298 0 0)
(0.14916379 0 0)
(0.14962386 0 0)
(0.1502118 0 0)
(0.15092626 0 0)
(0.15176602 0 0)
(0.1527299 0 0)
(0.15381676 0 0)
(0.15502544 0 0)
(0.15635474 0 0)
(0.15780337 0 0)
(0.15936997 0 0)
(0.16105304 0 0)
(0.16285097 0 0)
(0.164762 0 0)
(0.1667842 0 0)
(0.16891552 0 0)
(0.17115444 0 0)
(0.17368732 0 0)
(0.14856609 0 0)
(0.14863299 0 0)
(0.14883263 0 0)
(0.14916297 0 0)
(0.14962235 0 0)
(0.15020933 0 0)
(0.15092257 0 0)
(0.15176087 0 0)
(0.15272303 0 0)
(0.15380798 0 0)
(0.15501457 0 0)
(0.15634168 0 0)
(0.15778809 0 0)
(0.15935251 0 0)
(0.16103356 0 0)
(0.16282974 0 0)
(0.16473945 0 0)
(0.16676092 0 0)
(0.16889226 0 0)
(0.17113205 0 0)
(0.17365547 0 0)
(0.14856609 0 0)
(0.14863286 0 0)
(0.14883208 0 0)
(0.14916172 0 0)
(0.14962009 0 0)
(0.15020576 0 0)
(0.15091737 0 0)
(0.15175374 0 0)
(0.1527137 0 0)
(0.15379622 0 0)
(0.15500021 0 0)
(0.15632461 0 0)
(0.15776828 0 0)
(0.15933005 0 0)
(0.16100867 0 0)
(0.1628028 0 0)
(0.16471101 0 0)
(0.16673174 0 0)
(0.1688633 0 0)
(0.17110443 0 0)
(0.17361506 0 0)
(0.14856609 0 0)
(0.14863268 0 0)
(0.14883135 0 0)
(0.14916007 0 0)
(0.14961715 0 0)
(0.15020114 0 0)
(0.15091072 0 0)
(0.15174469 0 0)
(0.15270194 0 0)
(0.15378147 0 0)
(0.15498225 0 0)
(0.1563033 0 0)
(0.15774359 0 0)
(0.15930206 0 0)
(0.1609776 0 0)
(0.16276907 0 0)
(0.16467523 0 0)
(0.16669474 0 0)
(0.16882619 0 0)
(0.17106852 0 0)
(0.17356243 0 0)
(0.14856609 0 0)
(0.14863245 0 0)
(0.14883044 0 0)
(0.14915801 0 0)
(0.14961349 0 0)
(0.15019543 0 0)
(0.15090251 0 0)
(0.15173355 0 0)
(0.15268749 0 0)
(0.15376335 0 0)
(0.15496019 0 0)
(0.15627708 0 0)
(0.15771309 0 0)
(0.15926731 0 0)
(0.16093877 0 0)
(0.1627265 0 0)
(0.16462947 0 0)
(0.16664661 0 0)
(0.16877679 0 0)
(0.17101917 0 0)
(0.17349168 0 0)
(0.14856609 0 0)
(0.14863218 0 0)
(0.14882934 0 0)
(0.14915554 0 0)
(0.14960908 0 0)
(0.15018853 0 0)
(0.15089258 0 0)
(0.15172009 0 0)
(0.15267 0 0)
(0.15374139 0 0)
(0.15493334 0 0)
(0.15624503 0 0)
(0.15767561 0 0)
(0.15922428 0 0)
(0.16089018 0 0)
(0.16267251 0 0)
(0.16457044 0 0)
(0.16658311 0 0)
(0.16870967 0 0)
(0.1709496 0 0)
(0.17339487 0 0)
(0.14856609 0 0)
(0.14863185 0 0)
(0.14882805 0 0)
(0.14915261 0 0)
(0.14960387 0 0)
(0.15018035 0 0)
(0.15088082 0 0)
(0.15170409 0 0)
(0.15264918 0 0)
(0.15371514 0 0)
(0.15490115 0 0)
(0.15620638 0 0)
(0.15763008 0 0)
(0.15917148 0 0)
(0.16082987 0 0)
(0.16260451 0 0)
(0.16449468 0 0)
(0.1664997 0 0)
(0.16861882 0 0)
(0.17085182 0 0)
(0.17326219 0 0)
(0.14856609 0 0)
(0.14863148 0 0)
(0.14882655 0 0)
(0.14914924 0 0)
(0.14959784 0 0)
(0.15017091 0 0)
(0.15086722 0 0)
(0.1516856 0 0)
(0.15262505 0 0)
(0.15368464 0 0)
(0.15486357 0 0)
(0.15616101 0 0)
(0.15757625 0 0)
(0.15910855 0 0)
(0.16075722 0 0)
(0.16252154 0 0)
(0.16440079 0 0)
(0.16639419 0 0)
(0.16850076 0 0)
(0.17071994 0 0)
(0.17308381 0 0)
(0.14856609 0 0)
(0.1486332 0 0)
(0.14883349 0 0)
(0.14916504 0 0)
(0.14962627 0 0)
(0.15021583 0 0)
(0.15093245 0 0)
(0.15177492 0 0)
(0.15274206 0 0)
(0.15383271 0 0)
(0.15504567 0 0)
(0.15637967 0 0)
(0.15783334 0 0)
(0.15940521 0 0)
(0.16109366 0 0)
(0.16289691 0 0)
(0.16481301 0 0)
(0.16683984 0 0)
(0.16897512 0 0)
(0.17121723 0 0)
(0.17376129 0 0)
(0.14856609 0 0)
(0.1486331 0 0)
(0.1488331 0 0)
(0.14916411 0 0)
(0.14962455 0 0)
(0.15021301 0 0)
(0.15092822 0 0)
(0.15176894 0 0)
(0.15273399 0 0)
(0.15382222 0 0)
(0.15503244 0 0)
(0.1563634 0 0)
(0.15781378 0 0)
(0.15938215 0 0)
(0.16106694 0 0)
(0.16286644 0 0)
(0.16477879 0 0)
(0.16680196 0 0)
(0.16893375 0 0)
(0.1711726 0 0)
(0.17371179 0 0)
(0.14856609 0 0)
(0.14863308 0 0)
(0.14883298 0 0)
(0.14916379 0 0)
(0.14962386 0 0)
(0.1502118 0 0)
(0.15092626 0 0)
(0.15176602 0 0)
(0.1527299 0 0)
(0.15381676 0 0)
(0.15502544 0 0)
(0.15635474 0 0)
(0.15780337 0 0)
(0.15936997 0 0)
(0.16105304 0 0)
(0.16285097 0 0)
(0.164762 0 0)
(0.1667842 0 0)
(0.16891552 0 0)
(0.17115444 0 0)
(0.17368732 0 0)
(0.14856609 0 0)
(0.14863299 0 0)
(0.14883263 0 0)
(0.14916297 0 0)
(0.14962235 0 0)
(0.15020933 0 0)
(0.15092257 0 0)
(0.15176087 0 0)
(0.15272303 0 0)
(0.15380798 0 0)
(0.15501457 0 0)
(0.15634168 0 0)
(0.15778809 0 0)
(0.15935251 0 0)
(0.16103356 0 0)
(0.16282974 0 0)
(0.16473945 0 0)
(0.16676092 0 0)
(0.16889226 0 0)
(0.17113205 0 0)
(0.17365547 0 0)
(0.14856609 0 0)
(0.14863286 0 0)
(0.14883208 0 0)
(0.14916172 0 0)
(0.14962009 0 0)
(0.15020576 0 0)
(0.15091737 0 0)
(0.15175374 0 0)
(0.1527137 0 0)
(0.15379622 0 0)
(0.15500021 0 0)
(0.15632461 0 0)
(0.15776828 0 0)
(0.15933005 0 0)
(0.16100867 0 0)
(0.1628028 0 0)
(0.16471101 0 0)
(0.16673174 0 0)
(0.1688633 0 0)
(0.17110443 0 0)
(0.17361506 0 0)
(0.14856609 0 0)
(0.14863268 0 0)
(0.14883135 0 0)
(0.14916007 0 0)
(0.14961715 0 0)
(0.15020114 0 0)
(0.15091072 0 0)
(0.15174469 0 0)
(0.15270194 0 0)
(0.15378147 0 0)
(0.15498225 0 0)
(0.1563033 0 0)
(0.15774359 0 0)
(0.15930206 0 0)
(0.1609776 0 0)
(0.16276907 0 0)
(0.16467523 0 0)
(0.16669474 0 0)
(0.16882619 0 0)
(0.17106852 0 0)
(0.17356243 0 0)
(0.14856609 0 0)
(0.14863245 0 0)
(0.14883044 0 0)
(0.14915801 0 0)
(0.14961349 0 0)
(0.15019543 0 0)
(0.15090251 0 0)
(0.15173355 0 0)
(0.15268749 0 0)
(0.15376335 0 0)
(0.15496019 0 0)
(0.15627708 0 0)
(0.15771309 0 0)
(0.15926731 0 0)
(0.16093877 0 0)
(0.1627265 0 0)
(0.16462947 0 0)
(0.16664661 0 0)
(0.16877679 0 0)
(0.17101917 0 0)
(0.17349168 0 0)
(0.14856609 0 0)
(0.14863218 0 0)
(0.14882934 0 0)
(0.14915554 0 0)
(0.14960908 0 0)
(0.15018853 0 0)
(0.15089258 0 0)
(0.15172009 0 0)
(0.15267 0 0)
(0.15374139 0 0)
(0.15493334 0 0)
(0.15624503 0 0)
(0.15767561 0 0)
(0.15922428 0 0)
(0.16089018 0 0)
(0.16267251 0 0)
(0.16457044 0 0)
(0.16658311 0 0)
(0.16870967 0 0)
(0.1709496 0 0)
(0.17339487 0 0)
(0.14856609 0 0)
(0.14863185 0 0)
(0.14882805 0 0)
(0.14915261 0 0)
(0.14960387 0 0)
(0.15018035 0 0)
(0.15088082 0 0)
(0.15170409 0 0)
(0.15264918 0 0)
(0.15371514 0 0)
(0.15490115 0 0)
(0.15620638 0 0)
(0.15763008 0 0)
(0.15917148 0 0)
(0.16082987 0 0)
(0.16260451 0 0)
(0.16449468 0 0)
(0.1664997 0 0)
(0.16861882 0 0)
(0.17085182 0 0)
(0.17326219 0 0)
(0.14856609 0 0)
(0.14863148 0 0)
(0.14882655 0 0)
(0.14914924 0 0)
(0.14959784 0 0)
(0.15017091 0 0)
(0.15086722 0 0)
(0.1516856 0 0)
(0.15262505 0 0)
(0.15368464 0 0)
(0.15486357 0 0)
(0.15616101 0 0)
(0.15757625 0 0)
(0.15910855 0 0)
(0.16075722 0 0)
(0.16252154 0 0)
(0.16440079 0 0)
(0.16639419 0 0)
(0.16850076 0 0)
(0.17071994 0 0)
(0.17308381 0 0)
(0.17685153 0 0)
(0.18029407 0 0)
(0.18388277 0 0)
(0.18760563 0 0)
(0.19145155 0 0)
(0.19540649 0 0)
(0.19944752 0 0)
(0.20354122 0 0)
(0.20765128 0 0)
(0.21174408 0 0)
(0.21578831 0 0)
(0.21975506 0 0)
(0.22361376 0 0)
(0.22733238 0 0)
(0.23088127 0 0)
(0.23423557 0 0)
(0.23736825 0 0)
(0.24024815 0 0)
(0.24284501 0 0)
(0.245138 0 0)
(0.24710538 0 0)
(0.24871694 0 0)
(0.24994124 0 0)
(0.25075815 0 0)
(0.2511436 0 0)
(0.2510591 0 0)
(0.25046805 0 0)
(0.24934515 0 0)
(0.2476646 0 0)
(0.24537614 0 0)
(0.2424386 0 0)
(0.23883566 0 0)
(0.23456462 0 0)
(0.2295736 0 0)
(0.22374125 0 0)
(0.21701163 0 0)
(0.20939794 0 0)
(0.20083881 0 0)
(0.19119119 0 0)
(0.18044028 0 0)
(0.16862185 0 0)
(0.15556961 0 0)
(0.14120165 0 0)
(0.12552983 0 0)
(0.10848479 0 0)
(0.0899932 0 0)
(0.069941562 0 0)
(0.048274473 0 0)
(0.024951731 0 0)
(0 0 0)
(0.17679334 0 0)
(0.18022546 0 0)
(0.18380476 0 0)
(0.18752005 0 0)
(0.19136122 0 0)
(0.19531526 0 0)
(0.19935968 0 0)
(0.2034607 0 0)
(0.20758119 0 0)
(0.21168691 0 0)
(0.2157456 0 0)
(0.2197274 0 0)
(0.22360125 0 0)
(0.22733446 0 0)
(0.23089731 0 0)
(0.23426501 0 0)
(0.23741098 0 0)
(0.24030355 0 0)
(0.24291166 0 0)
(0.24521444 0 0)
(0.24719116 0 0)
(0.24881159 0 0)
(0.25004355 0 0)
(0.25086669 0 0)
(0.25125799 0 0)
(0.25117884 0 0)
(0.25059194 0 0)
(0.24947336 0 0)
(0.24779508 0 0)
(0.24550753 0 0)
(0.24257054 0 0)
(0.23896738 0 0)
(0.23469462 0 0)
(0.22970132 0 0)
(0.22386692 0 0)
(0.21713519 0 0)
(0.20951934 0 0)
(0.20095844 0 0)
(0.19130748 0 0)
(0.1805511 0 0)
(0.16872861 0 0)
(0.15566854 0 0)
(0.14128868 0 0)
(0.12560473 0 0)
(0.10854622 0 0)
(0.090041451 0 0)
(0.069977607 0 0)
(0.048299098 0 0)
(0.024964723 0 0)
(0 0 0)
(0.17674935 0 0)
(0.18015646 0 0)
(0.18371291 0 0)
(0.18740824 0 0)
(0.19123318 0 0)
(0.19517577 0 0)
(0.19921416 0 0)
(0.20331451 0 0)
(0.2074392 0 0)
(0.21155316 0 0)
(0.21562369 0 0)
(0.21961946 0 0)
(0.22350851 0 0)
(0.22725815 0 0)
(0.23083829 0 0)
(0.23422375 0 0)
(0.23738785 0 0)
(0.24029874 0 0)
(0.24292494 0 0)
(0.2452448 0 0)
(0.247238 0 0)
(0.24887478 0 0)
(0.25012271 0 0)
(0.25096043 0 0)
(0.25136534 0 0)
(0.25129925 0 0)
(0.25072481 0 0)
(0.24961814 0 0)
(0.24794919 0 0)
(0.24567007 0 0)
(0.24274055 0 0)
(0.23914285 0 0)
(0.23487368 0 0)
(0.22988343 0 0)
(0.22405131 0 0)
(0.2173202 0 0)
(0.20970427 0 0)
(0.20114348 0 0)
(0.19149035 0 0)
(0.18072837 0 0)
(0.16890108 0 0)
(0.1558321 0 0)
(0.14143814 0 0)
(0.12573761 0 0)
(0.10865954 0 0)
(0.090134677 0 0)
(0.070049995 0 0)
(0.048349173 0 0)
(0.024990813 0 0)
(0 0 0)
(0.176687 0 0)
(0.18005505 0 0)
(0.18357587 0 0)
(0.18723959 0 0)
(0.19103774 0 0)
(0.19495912 0 0)
(0.19898267 0 0)
(0.20307508 0 0)
(0.20719871 0 0)
(0.21131766 0 0)
(0.21539811 0 0)
(0.21940803 0 0)
(0.22331428 0 0)
(0.22708358 0 0)
(0.23068577 0 0)
(0.2340951 0 0)
(0.23728435 0 0)
(0.24022109 0 0)
(0.24287349 0 0)
(0.24521928 0 0)
(0.2472382 0 0)
(0.24890051 0 0)
(0.25017364 0 0)
(0.25103555 0 0)
(0.25146377 0 0)
(0.25142 0 0)
(0.25086665 0 0)
(0.24978066 0 0)
(0.24812963 0 0)
(0.24586662 0 0)
(0.24295178 0 0)
(0.23936652 0 0)
(0.23510725 0 0)
(0.23012525 0 0)
(0.22429953 0 0)
(0.21757253 0 0)
(0.20995919 0 0)
(0.20139976 0 0)
(0.19174494 0 0)
(0.18097773 0 0)
(0.16914433 0 0)
(0.1560645 0 0)
(0.14165429 0 0)
(0.12593258 0 0)
(0.10882824 0 0)
(0.090275481 0 0)
(0.070160792 0 0)
(0.048426253 0 0)
(0.025030774 0 0)
(0 0 0)
(0.17660496 0 0)
(0.17991975 0 0)
(0.18339211 0 0)
(0.18701276 0 0)
(0.19077357 0 0)
(0.19466403 0 0)
(0.1986641 0 0)
(0.2027414 0 0)
(0.20685829 0 0)
(0.21097825 0 0)
(0.21506657 0 0)
(0.21909001 0 0)
(0.22301483 0 0)
(0.226807 0 0)
(0.23043596 0 0)
(0.23387505 0 0)
(0.23709623 0 0)
(0.24006644 0 0)
(0.24275341 0 0)
(0.24513393 0 0)
(0.24718752 0 0)
(0.2488847 0 0)
(0.25019275 0 0)
(0.25108856 0 0)
(0.25154942 0 0)
(0.25153726 0 0)
(0.25101428 0 0)
(0.24995731 0 0)
(0.24833265 0 0)
(0.24609426 0 0)
(0.24320156 0 0)
(0.23963518 0 0)
(0.23539214 0 0)
(0.23042424 0 0)
(0.22460928 0 0)
(0.21788949 0 0)
(0.21028139 0 0)
(0.20172538 0 0)
(0.19206971 0 0)
(0.18129699 0 0)
(0.16945647 0 0)
(0.15636449 0 0)
(0.14193559 0 0)
(0.12618799 0 0)
(0.10905104 0 0)
(0.09046294 0 0)
(0.070309151 0 0)
(0.048529573 0 0)
(0.025084238 0 0)
(0 0 0)
(0.17649939 0 0)
(0.17974658 0 0)
(0.18315742 0 0)
(0.18672323 0 0)
(0.19043619 0 0)
(0.19428634 0 0)
(0.19825443 0 0)
(0.20230943 0 0)
(0.20641392 0 0)
(0.21053027 0 0)
(0.21462341 0 0)
(0.21865974 0 0)
(0.22260427 0 0)
(0.22642219 0 0)
(0.23008238 0 0)
(0.23355723 0 0)
(0.2368173 0 0)
(0.23982857 0 0)
(0.24255829 0 0)
(0.24498257 0 0)
(0.24708034 0 0)
(0.24882182 0 0)
(0.25017412 0 0)
(0.25111375 0 0)
(0.25161733 0 0)
(0.25164615 0 0)
(0.25116239 0 0)
(0.25014343 0 0)
(0.24855404 0 0)
(0.24634822 0 0)
(0.24348513 0 0)
(0.2399449 0 0)
(0.23572464 0 0)
(0.23077626 0 0)
(0.22497644 0 0)
(0.2182677 0 0)
(0.21066792 0 0)
(0.20211701 0 0)
(0.19246116 0 0)
(0.18168355 0 0)
(0.16983479 0 0)
(0.15672904 0 0)
(0.14227967 0 0)
(0.12650185 0 0)
(0.10932602 0 0)
(0.090695327 0 0)
(0.070493829 0 0)
(0.048658431 0 0)
(0.025150792 0 0)
(0 0 0)
(0.17636413 0 0)
(0.17952919 0 0)
(0.18286518 0 0)
(0.18636431 0 0)
(0.19001893 0 0)
(0.19381925 0 0)
(0.19774714 0 0)
(0.20177249 0 0)
(0.20585821 0 0)
(0.20996619 0 0)
(0.21406094 0 0)
(0.21810864 0 0)
(0.22207395 0 0)
(0.22592067 0 0)
(0.22961646 0 0)
(0.23313273 0 0)
(0.23643871 0 0)
(0.23949901 0 0)
(0.24227999 0 0)
(0.24475698 0 0)
(0.24690845 0 0)
(0.24870412 0 0)
(0.25011058 0 0)
(0.25110382 0 0)
(0.25166 0 0)
(0.25173964 0 0)
(0.25130452 0 0)
(0.25033219 0 0)
(0.24878721 0 0)
(0.24662286 0 0)
(0.243797 0 0)
(0.24028971 0 0)
(0.23609903 0 0)
(0.2311764 0 0)
(0.22539633 0 0)
(0.2187021 0 0)
(0.21111399 0 0)
(0.20257072 0 0)
(0.19291575 0 0)
(0.1821335 0 0)
(0.17027603 0 0)
(0.15715543 0 0)
(0.1426834 0 0)
(0.12687107 0 0)
(0.1096507 0 0)
(0.090970659 0 0)
(0.070713152 0 0)
(0.048811572 0 0)
(0.025229811 0 0)
(0 0 0)
(0.17619089 0 0)
(0.17925932 0 0)
(0.18250717 0 0)
(0.18592779 0 0)
(0.18951367 0 0)
(0.19325486 0 0)
(0.19713343 0 0)
(0.20112136 0 0)
(0.20518188 0 0)
(0.20927584 0 0)
(0.2133682 0 0)
(0.21742607 0 0)
(0.22141331 0 0)
(0.2252917 0 0)
(0.22902746 0 0)
(0.2325911 0 0)
(0.23595006 0 0)
(0.23906727 0 0)
(0.24190815 0 0)
(0.24444732 0 0)
(0.2466624 0 0)
(0.24852218 0 0)
(0.24999265 0 0)
(0.25104979 0 0)
(0.25166909 0 0)
(0.25180947 0 0)
(0.25143216 0 0)
(0.25051594 0 0)
(0.24902466 0 0)
(0.24691045 0 0)
(0.24412988 0 0)
(0.24066295 0 0)
(0.23650871 0 0)
(0.23161791 0 0)
(0.22586253 0 0)
(0.21918704 0 0)
(0.2116141 0 0)
(0.20308079 0 0)
(0.19342811 0 0)
(0.18264227 0 0)
(0.17077562 0 0)
(0.15763912 0 0)
(0.14314278 0 0)
(0.12729213 0 0)
(0.1100219 0 0)
(0.091286149 0 0)
(0.070965046 0 0)
(0.048987764 0 0)
(0.025320663 0 0)
(0 0 0)
(0.17596957 0 0)
(0.17892748 0 0)
(0.18207459 0 0)
(0.18540542 0 0)
(0.18891209 0 0)
(0.19258325 0 0)
(0.19640225 0 0)
(0.20034316 0 0)
(0.20437052 0 0)
(0.20844591 0 0)
(0.21253388 0 0)
(0.21660104 0 0)
(0.22061065 0 0)
(0.22452276 0 0)
(0.22830262 0 0)
(0.23191959 0 0)
(0.23533884 0 0)
(0.23852126 0 0)
(0.24143122 0 0)
(0.24404219 0 0)
(0.24633085 0 0)
(0.24826507 0 0)
(0.24981 0 0)
(0.25094151 0 0)
(0.25163442 0 0)
(0.25184576 0 0)
(0.25153611 0 0)
(0.25068514 0 0)
(0.24925716 0 0)
(0.24720279 0 0)
(0.24447584 0 0)
(0.24105627 0 0)
(0.2369456 0 0)
(0.23209352 0 0)
(0.22636808 0 0)
(0.21971527 0 0)
(0.21216132 0 0)
(0.20364124 0 0)
(0.19399282 0 0)
(0.1832042 0 0)
(0.17132879 0 0)
(0.15817562 0 0)
(0.14365285 0 0)
(0.1277605 0 0)
(0.11043583 0 0)
(0.091638708 0 0)
(0.07124702 0 0)
(0.049185204 0 0)
(0.025422468 0 0)
(0 0 0)
(0.17568872 0 0)
(0.17852434 0 0)
(0.1815596 0 0)
(0.18478888 0 0)
(0.18820313 0 0)
(0.1917923 0 0)
(0.19554157 0 0)
(0.19942581 0 0)
(0.20341218 0 0)
(0.20746424 0 0)
(0.21154523 0 0)
(0.21562078 0 0)
(0.21965281 0 0)
(0.22360051 0 0)
(0.22742868 0 0)
(0.2311055 0 0)
(0.23459321 0 0)
(0.23784969 0 0)
(0.24083776 0 0)
(0.24353018 0 0)
(0.24590299 0 0)
(0.24792233 0 0)
(0.24955222 0 0)
(0.25076903 0 0)
(0.25154672 0 0)
(0.25183952 0 0)
(0.25160716 0 0)
(0.25083132 0 0)
(0.24947647 0 0)
(0.24749171 0 0)
(0.24482711 0 0)
(0.24146229 0 0)
(0.23740224 0 0)
(0.23259572 0 0)
(0.22690583 0 0)
(0.22028016 0 0)
(0.21274922 0 0)
(0.20424559 0 0)
(0.19460371 0 0)
(0.1838138 0 0)
(0.17192982 0 0)
(0.15875927 0 0)
(0.14420843 0 0)
(0.12827154 0 0)
(0.11088831 0 0)
(0.09202473 0 0)
(0.071556309 0 0)
(0.049402132 0 0)
(0.025534305 0 0)
(0 0 0)
(0.17598234 0 0)
(0.17869503 0 0)
(0.18161151 0 0)
(0.18472542 0 0)
(0.18802983 0 0)
(0.19151846 0 0)
(0.19517582 0 0)
(0.19897667 0 0)
(0.2028922 0 0)
(0.20688802 0 0)
(0.21092786 0 0)
(0.21497707 0 0)
(0.21899658 0 0)
(0.22294473 0 0)
(0.22678607 0 0)
(0.23048784 0 0)
(0.2340104 0 0)
(0.23730906 0 0)
(0.2403448 0 0)
(0.24309032 0 0)
(0.24552104 0 0)
(0.24760112 0 0)
(0.24929353 0 0)
(0.25057479 0 0)
(0.25141831 0 0)
(0.25177636 0 0)
(0.25160756 0 0)
(0.25089421 0 0)
(0.2496019 0 0)
(0.24767835 0 0)
(0.24507003 0 0)
(0.24175499 0 0)
(0.23774175 0 0)
(0.23297926 0 0)
(0.22732681 0 0)
(0.22073038 0 0)
(0.21322503 0 0)
(0.20474213 0 0)
(0.19511452 0 0)
(0.18433048 0 0)
(0.17244584 0 0)
(0.15926771 0 0)
(0.14469796 0 0)
(0.12872679 0 0)
(0.11129543 0 0)
(0.092376023 0 0)
(0.071841867 0 0)
(0.049605738 0 0)
(0.025642383 0 0)
(0 0 0)
(0.17685153 0 0)
(0.18029407 0 0)
(0.18388277 0 0)
(0.18760563 0 0)
(0.19145155 0 0)
(0.19540649 0 0)
(0.19944752 0 0)
(0.20354122 0 0)
(0.20765128 0 0)
(0.21174408 0 0)
(0.21578831 0 0)
(0.21975506 0 0)
(0.22361376 0 0)
(0.22733238 0 0)
(0.23088127 0 0)
(0.23423557 0 0)
(0.23736825 0 0)
(0.24024815 0 0)
(0.24284501 0 0)
(0.245138 0 0)
(0.24710538 0 0)
(0.24871694 0 0)
(0.24994124 0 0)
(0.25075815 0 0)
(0.2511436 0 0)
(0.2510591 0 0)
(0.25046805 0 0)
(0.24934515 0 0)
(0.2476646 0 0)
(0.24537614 0 0)
(0.2424386 0 0)
(0.23883566 0 0)
(0.23456462 0 0)
(0.2295736 0 0)
(0.22374125 0 0)
(0.21701163 0 0)
(0.20939794 0 0)
(0.20083881 0 0)
(0.19119119 0 0)
(0.18044028 0 0)
(0.16862185 0 0)
(0.15556961 0 0)
(0.14120165 0 0)
(0.12552983 0 0)
(0.10848479 0 0)
(0.0899932 0 0)
(0.069941562 0 0)
(0.048274473 0 0)
(0.024951731 0 0)
(0 0 0)
(0.17679334 0 0)
(0.18022546 0 0)
(0.18380476 0 0)
(0.18752005 0 0)
(0.19136122 0 0)
(0.19531526 0 0)
(0.19935968 0 0)
(0.2034607 0 0)
(0.20758119 0 0)
(0.21168691 0 0)
(0.2157456 0 0)
(0.2197274 0 0)
(0.22360125 0 0)
(0.22733446 0 0)
(0.23089731 0 0)
(0.23426501 0 0)
(0.23741098 0 0)
(0.24030355 0 0)
(0.24291166 0 0)
(0.24521444 0 0)
(0.24719116 0 0)
(0.24881159 0 0)
(0.25004355 0 0)
(0.25086669 0 0)
(0.25125799 0 0)
(0.25117884 0 0)
(0.25059194 0 0)
(0.24947336 0 0)
(0.24779508 0 0)
(0.24550753 0 0)
(0.24257054 0 0)
(0.23896738 0 0)
(0.23469462 0 0)
(0.22970132 0 0)
(0.22386692 0 0)
(0.21713519 0 0)
(0.20951934 0 0)
(0.20095844 0 0)
(0.19130748 0 0)
(0.1805511 0 0)
(0.16872861 0 0)
(0.15566854 0 0)
(0.14128868 0 0)
(0.12560473 0 0)
(0.10854622 0 0)
(0.090041451 0 0)
(0.069977607 0 0)
(0.048299098 0 0)
(0.024964723 0 0)
(0 0 0)
(0.17674935 0 0)
(0.18015646 0 0)
(0.18371291 0 0)
(0.18740824 0 0)
(0.19123318 0 0)
(0.19517577 0 0)
(0.19921416 0 0)
(0.20331451 0 0)
(0.2074392 0 0)
(0.21155316 0 0)
(0.21562369 0 0)
(0.21961946 0 0)
(0.22350851 0 0)
(0.22725815 0 0)
(0.23083829 0 0)
(0.23422375 0 0)
(0.23738785 0 0)
(0.24029874 0 0)
(0.24292494 0 0)
(0.2452448 0 0)
(0.247238 0 0)
(0.24887478 0 0)
(0.25012271 0 0)
(0.25096043 0 0)
(0.25136534 0 0)
(0.25129925 0 0)
(0.25072481 0 0)
(0.24961814 0 0)
(0.24794919 0 0)
(0.24567007 0 0)
(0.24274055 0 0)
(0.23914285 0 0)
(0.23487368 0 0)
(0.22988343 0 0)
(0.22405131 0 0)
(0.2173202 0 0)
(0.20970427 0 0)
(0.20114348 0 0)
(0.19149035 0 0)
(0.18072837 0 0)
(0.16890108 0 0)
(0.1558321 0 0)
(0.14143814 0 0)
(0.12573761 0 0)
(0.10865954 0 0)
(0.090134677 0 0)
(0.070049995 0 0)
(0.048349173 0 0)
(0.024990813 0 0)
(0 0 0)
(0.176687 0 0)
(0.18005505 0 0)
(0.18357587 0 0)
(0.18723959 0 0)
(0.19103774 0 0)
(0.19495912 0 0)
(0.19898267 0 0)
(0.20307508 0 0)
(0.20719871 0 0)
(0.21131766 0 0)
(0.21539811 0 0)
(0.21940803 0 0)
(0.22331428 0 0)
(0.22708358 0 0)
(0.23068577 0 0)
(0.2340951 0 0)
(0.23728435 0 0)
(0.24022109 0 0)
(0.24287349 0 0)
(0.24521928 0 0)
(0.2472382 0 0)
(0.24890051 0 0)
(0.25017364 0 0)
(0.25103555 0 0)
(0.25146377 0 0)
(0.25142 0 0)
(0.25086665 0 0)
(0.24978066 0 0)
(0.24812963 0 0)
(0.24586662 0 0)
(0.24295178 0 0)
(0.23936652 0 0)
(0.23510725 0 0)
(0.23012525 0 0)
(0.22429953 0 0)
(0.21757253 0 0)
(0.20995919 0 0)
(0.20139976 0 0)
(0.19174494 0 0)
(0.18097773 0 0)
(0.16914433 0 0)
(0.1560645 0 0)
(0.14165429 0 0)
(0.12593258 0 0)
(0.10882824 0 0)
(0.090275481 0 0)
(0.070160792 0 0)
(0.048426253 0 0)
(0.025030774 0 0)
(0 0 0)
(0.17660496 0 0)
(0.17991975 0 0)
(0.18339211 0 0)
(0.18701276 0 0)
(0.19077357 0 0)
(0.19466403 0 0)
(0.1986641 0 0)
(0.2027414 0 0)
(0.20685829 0 0)
(0.21097825 0 0)
(0.21506657 0 0)
(0.21909001 0 0)
(0.22301483 0 0)
(0.226807 0 0)
(0.23043596 0 0)
(0.23387505 0 0)
(0.23709623 0 0)
(0.24006644 0 0)
(0.24275341 0 0)
(0.24513393 0 0)
(0.24718752 0 0)
(0.2488847 0 0)
(0.25019275 0 0)
(0.25108856 0 0)
(0.25154942 0 0)
(0.25153726 0 0)
(0.25101428 0 0)
(0.24995731 0 0)
(0.24833265 0 0)
(0.24609426 0 0)
(0.24320156 0 0)
(0.23963518 0 0)
(0.23539214 0 0)
(0.23042424 0 0)
(0.22460928 0 0)
(0.21788949 0 0)
(0.21028139 0 0)
(0.20172538 0 0)
(0.19206971 0 0)
(0.18129699 0 0)
(0.16945647 0 0)
(0.15636449 0 0)
(0.14193559 0 0)
(0.12618799 0 0)
(0.10905104 0 0)
(0.09046294 0 0)
(0.070309151 0 0)
(0.048529573 0 0)
(0.025084238 0 0)
(0 0 0)
(0.17649939 0 0)
(0.17974658 0 0)
(0.18315742 0 0)
(0.18672323 0 0)
(0.19043619 0 0)
(0.19428634 0 0)
(0.19825443 0 0)
(0.20230943 0 0)
(0.20641392 0 0)
(0.21053027 0 0)
(0.21462341 0 0)
(0.21865974 0 0)
(0.22260427 0 0)
(0.22642219 0 0)
(0.23008238 0 0)
(0.23355723 0 0)
(0.2368173 0 0)
(0.23982857 0 0)
(0.24255829 0 0)
(0.24498257 0 0)
(0.24708034 0 0)
(0.24882182 0 0)
(0.25017412 0 0)
(0.25111375 0 0)
(0.25161733 0 0)
(0.25164615 0 0)
(0.25116239 0 0)
(0.25014343 0 0)
(0.24855404 0 0)
(0.24634822 0 0)
(0.24348513 0 0)
(0.2399449 0 0)
(0.23572464 0 0)
(0.23077626 0 0)
(0.22497644 0 0)
(0.2182677 0 0)
(0.21066792 0 0)
(0.20211701 0 0)
(0.19246116 0 0)
(0.18168355 0 0)
(0.16983479 0 0)
(0.15672904 0 0)
(0.14227967 0 0)
(0.12650185 0 0)
(0.10932602 0 0)
(0.090695327 0 0)